 Entering Gaussian System, Link 0=g16
 Initial command:
 /ihome/crc/install/gaussian/c01/avx2/tar/g16/l1.exe "/scratch/slurm-17984221/Gau-12802.inp" -scrdir="/scratch/slurm-17984221/"
 Entering Link 1 = /ihome/crc/install/gaussian/c01/avx2/tar/g16/l1.exe PID=     12804.
  
 Copyright (c) 1988-2019, Gaussian, Inc.  All Rights Reserved.
  
 This is part of the Gaussian(R) 16 program.  It is based on
 the Gaussian(R) 09 system (copyright 2009, Gaussian, Inc.),
 the Gaussian(R) 03 system (copyright 2003, Gaussian, Inc.),
 the Gaussian(R) 98 system (copyright 1998, Gaussian, Inc.),
 the Gaussian(R) 94 system (copyright 1995, Gaussian, Inc.),
 the Gaussian 92(TM) system (copyright 1992, Gaussian, Inc.),
 the Gaussian 90(TM) system (copyright 1990, Gaussian, Inc.),
 the Gaussian 88(TM) system (copyright 1988, Gaussian, Inc.),
 the Gaussian 86(TM) system (copyright 1986, Carnegie Mellon
 University), and the Gaussian 82(TM) system (copyright 1983,
 Carnegie Mellon University). Gaussian is a federally registered
 trademark of Gaussian, Inc.
  
 This software contains proprietary and confidential information,
 including trade secrets, belonging to Gaussian, Inc.
  
 This software is provided under written license and may be
 used, copied, transmitted, or stored only in accord with that
 written license.
  
 The following legend is applicable only to US Government
 contracts under FAR:
  
                    RESTRICTED RIGHTS LEGEND
  
 Use, reproduction and disclosure by the US Government is
 subject to restrictions as set forth in subparagraphs (a)
 and (c) of the Commercial Computer Software - Restricted
 Rights clause in FAR 52.227-19.
  
 Gaussian, Inc.
 340 Quinnipiac St., Bldg. 40, Wallingford CT 06492
  
  
 ---------------------------------------------------------------
 Warning -- This program may not be used in any manner that
 competes with the business of Gaussian, Inc. or will provide
 assistance to any competitor of Gaussian, Inc.  The licensee
 of this program is prohibited from giving any competitor of
 Gaussian, Inc. access to this program.  By using this program,
 the user acknowledges that Gaussian, Inc. is engaged in the
 business of creating and licensing software in the field of
 computational chemistry and represents and warrants to the
 licensee that it is not a competitor of Gaussian, Inc. and that
 it will not use this program in any manner prohibited above.
 ---------------------------------------------------------------
  

 Cite this work as:
 Gaussian 16, Revision C.01,
 M. J. Frisch, G. W. Trucks, H. B. Schlegel, G. E. Scuseria, 
 M. A. Robb, J. R. Cheeseman, G. Scalmani, V. Barone, 
 G. A. Petersson, H. Nakatsuji, X. Li, M. Caricato, A. V. Marenich, 
 J. Bloino, B. G. Janesko, R. Gomperts, B. Mennucci, H. P. Hratchian, 
 J. V. Ortiz, A. F. Izmaylov, J. L. Sonnenberg, D. Williams-Young, 
 F. Ding, F. Lipparini, F. Egidi, J. Goings, B. Peng, A. Petrone, 
 T. Henderson, D. Ranasinghe, V. G. Zakrzewski, J. Gao, N. Rega, 
 G. Zheng, W. Liang, M. Hada, M. Ehara, K. Toyota, R. Fukuda, 
 J. Hasegawa, M. Ishida, T. Nakajima, Y. Honda, O. Kitao, H. Nakai, 
 T. Vreven, K. Throssell, J. A. Montgomery, Jr., J. E. Peralta, 
 F. Ogliaro, M. J. Bearpark, J. J. Heyd, E. N. Brothers, K. N. Kudin, 
 V. N. Staroverov, T. A. Keith, R. Kobayashi, J. Normand, 
 K. Raghavachari, A. P. Rendell, J. C. Burant, S. S. Iyengar, 
 J. Tomasi, M. Cossi, J. M. Millam, M. Klene, C. Adamo, R. Cammi, 
 J. W. Ochterski, R. L. Martin, K. Morokuma, O. Farkas, 
 J. B. Foresman, and D. J. Fox, Gaussian, Inc., Wallingford CT, 2019.
 
 ******************************************
 Gaussian 16:  ES64L-G16RevC.01  3-Jul-2019
                31-Jan-2025 
 ******************************************
 %nprocshared=32
 Will use up to   32 processors via shared memory.
 %mem=64GB
 ----------------------------------------------------------------------
 #p m062x genecp opt freq nosymm scrf=(smd,solvent=propylethanoate) emp
 iricaldispersion=gd3 scf=(xqc,maxcycles=128)
 ----------------------------------------------------------------------
 1/18=20,19=15,26=3,38=1/1,3;
 2/9=110,12=2,15=1,17=6,18=5,40=1/2;
 3/5=7,11=2,16=1,17=8,25=1,30=1,70=32201,71=1,72=169,74=-55,124=31/1,2,3;
 4//1;
 5/5=2,7=128,8=3,13=1,38=5,53=169/2,8;
 6/7=2,8=2,9=2,10=2,28=1/1;
 7/30=1/1,2,3,16;
 1/18=20,19=15,26=3/3(2);
 2/9=110,15=1/2;
 99//99;
 2/9=110,15=1/2;
 3/5=7,6=1,11=2,16=1,17=8,25=1,30=1,70=32205,71=1,72=169,74=-55,82=7,124=31/1,2,3;
 4/5=5,16=3,69=1/1;
 5/5=2,7=128,8=3,13=1,38=5,53=169/2,8;
 7/30=1/1,2,3,16;
 1/18=20,19=15,26=3/3(-5);
 2/9=110,15=1/2;
 6/7=2,8=2,9=2,10=2,19=2,28=1/1;
 99/9=1/99;
 Leave Link    1 at Fri Jan 31 11:17:13 2025, MaxMem=  8589934592 cpu:               0.7 elap:               0.0
 (Enter /ihome/crc/install/gaussian/c01/avx2/tar/g16/l101.exe)
 -------------------
 Title Card Required
 -------------------
 Symbolic Z-matrix:
 Charge =  0 Multiplicity = 1
 C                    -1.71734  -2.02113   0.09514 
 C                    -0.48519  -2.13292   0.87447 
 C                    -0.5594   -1.60464   2.23822 
 C                    -1.59655  -0.78358   2.56914 
 C                    -2.69485  -0.62368   1.66089 
 N                    -2.71763  -1.28072   0.47016 
 H                    -1.61518  -0.33562   3.55927 
 C                    -1.90476  -2.70014  -1.22022 
 C                    -3.12888  -3.33643  -1.53299 
 C                    -3.34579  -3.80136  -2.83516 
 C                    -1.15078  -3.06833  -3.51855 
 C                    -2.37453  -3.65433  -3.82405 
 H                    -4.28322  -4.31105  -3.06351 
 H                    -2.56304  -4.01963  -4.83454 
 H                    -0.35612  -2.94969  -4.25536 
 C                    -0.93424  -2.61906  -2.22394 
 C                    -4.16826  -3.59937  -0.4985 
 C                    -5.51771  -3.32966  -0.75756 
 C                    -3.81809  -4.17538   0.7318 
 C                    -6.49464  -3.61553   0.19732 
 H                    -5.80281  -2.87697  -1.70933 
 C                    -4.79322  -4.465     1.68276 
 H                    -2.76892  -4.40831   0.93618 
 C                    -6.13617  -4.18473   1.41873 
 H                    -7.54127  -3.39123  -0.01679 
 H                    -4.50471  -4.92039   2.63176 
 H                    -6.90053  -4.41095   2.16424 
 F                     0.25271  -2.08452  -1.94303 
 C                     0.51176  -1.90249   3.23589 
 H                     0.3825   -2.933     3.60423 
 H                     1.50834  -1.84462   2.77801 
 H                     0.45838  -1.20926   4.08337 
 C                    -5.01493   0.0323    1.1947 
 C                    -3.90426   0.96396   3.12737 
 C                    -6.09564  -0.49033   2.13493 
 H                    -4.88606  -0.62845   0.33142 
 H                    -5.27937   1.04307   0.85341 
 C                    -5.03077   0.41663   3.99769 
 H                    -2.96779   1.04165   3.68579 
 H                    -4.17674   1.9712    2.77367 
 H                    -5.84711  -1.52623   2.43543 
 H                    -7.06377  -0.49939   1.61638 
 H                    -4.73952  -0.57928   4.38476 
 H                    -5.20418   1.08681   4.84985 
 N                    -3.76046   0.12063   1.94522 
 O                    -6.22865   0.33262   3.26973 
 I                     1.10385  -3.44261   0.34274 
 
 ITRead=  0  0  0  0  0  0  0  0  0  0  0  0  0  0  0  0  0  0  0  0
 ITRead=  0  0  0  0  0  0  0  0  0  0  0  0  0  0  0  0  0  0  0  0
 ITRead=  0  0  0  0  0  0  0
 MicOpt= -1 -1 -1 -1 -1 -1 -1 -1 -1 -1 -1 -1 -1 -1 -1 -1 -1 -1 -1 -1
 MicOpt= -1 -1 -1 -1 -1 -1 -1 -1 -1 -1 -1 -1 -1 -1 -1 -1 -1 -1 -1 -1
 MicOpt= -1 -1 -1 -1 -1 -1 -1
 NAtoms=     47 NQM=       47 NQMF=       0 NMMI=      0 NMMIF=      0
                NMic=       0 NMicF=      0.
                    Isotopes and Nuclear Properties:
 (Nuclear quadrupole moments (NQMom) in fm**2, nuclear magnetic moments (NMagM)
  in nuclear magnetons)

  Atom         1           2           3           4           5           6           7           8           9          10
 IAtWgt=          12          12          12          12          12          14           1          12          12          12
 AtmWgt=  12.0000000  12.0000000  12.0000000  12.0000000  12.0000000  14.0030740   1.0078250  12.0000000  12.0000000  12.0000000
 NucSpn=           0           0           0           0           0           2           1           0           0           0
 AtZEff=  -0.0000000  -0.0000000  -0.0000000  -0.0000000  -0.0000000  -0.0000000  -0.0000000  -0.0000000  -0.0000000  -0.0000000
 NQMom=    0.0000000   0.0000000   0.0000000   0.0000000   0.0000000   2.0440000   0.0000000   0.0000000   0.0000000   0.0000000
 NMagM=    0.0000000   0.0000000   0.0000000   0.0000000   0.0000000   0.4037610   2.7928460   0.0000000   0.0000000   0.0000000
 AtZNuc=   6.0000000   6.0000000   6.0000000   6.0000000   6.0000000   7.0000000   1.0000000   6.0000000   6.0000000   6.0000000

  Atom        11          12          13          14          15          16          17          18          19          20
 IAtWgt=          12          12           1           1           1          12          12          12          12          12
 AtmWgt=  12.0000000  12.0000000   1.0078250   1.0078250   1.0078250  12.0000000  12.0000000  12.0000000  12.0000000  12.0000000
 NucSpn=           0           0           1           1           1           0           0           0           0           0
 AtZEff=  -0.0000000  -0.0000000  -0.0000000  -0.0000000  -0.0000000  -0.0000000  -0.0000000  -0.0000000  -0.0000000  -0.0000000
 NQMom=    0.0000000   0.0000000   0.0000000   0.0000000   0.0000000   0.0000000   0.0000000   0.0000000   0.0000000   0.0000000
 NMagM=    0.0000000   0.0000000   2.7928460   2.7928460   2.7928460   0.0000000   0.0000000   0.0000000   0.0000000   0.0000000
 AtZNuc=   6.0000000   6.0000000   1.0000000   1.0000000   1.0000000   6.0000000   6.0000000   6.0000000   6.0000000   6.0000000

  Atom        21          22          23          24          25          26          27          28          29          30
 IAtWgt=           1          12           1          12           1           1           1          19          12           1
 AtmWgt=   1.0078250  12.0000000   1.0078250  12.0000000   1.0078250   1.0078250   1.0078250  18.9984032  12.0000000   1.0078250
 NucSpn=           1           0           1           0           1           1           1           1           0           1
 AtZEff=  -0.0000000  -0.0000000  -0.0000000  -0.0000000  -0.0000000  -0.0000000  -0.0000000  -0.0000000  -0.0000000  -0.0000000
 NQMom=    0.0000000   0.0000000   0.0000000   0.0000000   0.0000000   0.0000000   0.0000000   0.0000000   0.0000000   0.0000000
 NMagM=    2.7928460   0.0000000   2.7928460   0.0000000   2.7928460   2.7928460   2.7928460   2.6288670   0.0000000   2.7928460
 AtZNuc=   1.0000000   6.0000000   1.0000000   6.0000000   1.0000000   1.0000000   1.0000000   9.0000000   6.0000000   1.0000000

  Atom        31          32          33          34          35          36          37          38          39          40
 IAtWgt=           1           1          12          12          12           1           1          12           1           1
 AtmWgt=   1.0078250   1.0078250  12.0000000  12.0000000  12.0000000   1.0078250   1.0078250  12.0000000   1.0078250   1.0078250
 NucSpn=           1           1           0           0           0           1           1           0           1           1
 AtZEff=  -0.0000000  -0.0000000  -0.0000000  -0.0000000  -0.0000000  -0.0000000  -0.0000000  -0.0000000  -0.0000000  -0.0000000
 NQMom=    0.0000000   0.0000000   0.0000000   0.0000000   0.0000000   0.0000000   0.0000000   0.0000000   0.0000000   0.0000000
 NMagM=    2.7928460   2.7928460   0.0000000   0.0000000   0.0000000   2.7928460   2.7928460   0.0000000   2.7928460   2.7928460
 AtZNuc=   1.0000000   1.0000000   6.0000000   6.0000000   6.0000000   1.0000000   1.0000000   6.0000000   1.0000000   1.0000000

  Atom        41          42          43          44          45          46          47
 IAtWgt=           1           1           1           1          14          16         127
 AtmWgt=   1.0078250   1.0078250   1.0078250   1.0078250  14.0030740  15.9949146 126.9004000
 NucSpn=           1           1           1           1           2           0           5
 AtZEff=  -0.0000000  -0.0000000  -0.0000000  -0.0000000  -0.0000000  -0.0000000  -0.0000000
 NQMom=    0.0000000   0.0000000   0.0000000   0.0000000   2.0440000   0.0000000 -71.0000000
 NMagM=    2.7928460   2.7928460   2.7928460   2.7928460   0.4037610   0.0000000   2.8132800
 AtZNuc=   1.0000000   1.0000000   1.0000000   1.0000000   7.0000000   8.0000000  53.0000000
 Leave Link  101 at Fri Jan 31 11:17:14 2025, MaxMem=  8589934592 cpu:               9.5 elap:               0.3
 (Enter /ihome/crc/install/gaussian/c01/avx2/tar/g16/l103.exe)

 GradGradGradGradGradGradGradGradGradGradGradGradGradGradGradGradGradGrad
 Berny optimization.
 Initialization pass.
                           ----------------------------
                           !    Initial Parameters    !
                           ! (Angstroms and Degrees)  !
 --------------------------                            --------------------------
 ! Name  Definition              Value          Derivative Info.                !
 --------------------------------------------------------------------------------
 ! R1    R(1,2)                  1.4622         estimate D2E/DX2                !
 ! R2    R(1,6)                  1.2998         estimate D2E/DX2                !
 ! R3    R(1,8)                  1.4921         estimate D2E/DX2                !
 ! R4    R(2,3)                  1.4644         estimate D2E/DX2                !
 ! R5    R(2,47)                 2.1267         estimate D2E/DX2                !
 ! R6    R(3,4)                  1.3636         estimate D2E/DX2                !
 ! R7    R(3,29)                 1.4938         estimate D2E/DX2                !
 ! R8    R(4,5)                  1.4341         estimate D2E/DX2                !
 ! R9    R(4,7)                  1.0869         estimate D2E/DX2                !
 ! R10   R(5,6)                  1.3602         estimate D2E/DX2                !
 ! R11   R(5,45)                 1.3305         estimate D2E/DX2                !
 ! R12   R(8,9)                  1.4146         estimate D2E/DX2                !
 ! R13   R(8,16)                 1.3986         estimate D2E/DX2                !
 ! R14   R(9,10)                 1.3996         estimate D2E/DX2                !
 ! R15   R(9,17)                 1.4898         estimate D2E/DX2                !
 ! R16   R(10,12)                1.3939         estimate D2E/DX2                !
 ! R17   R(10,13)                1.0912         estimate D2E/DX2                !
 ! R18   R(11,12)                1.3908         estimate D2E/DX2                !
 ! R19   R(11,15)                1.0902         estimate D2E/DX2                !
 ! R20   R(11,16)                1.3874         estimate D2E/DX2                !
 ! R21   R(12,14)                1.0909         estimate D2E/DX2                !
 ! R22   R(16,28)                1.3317         estimate D2E/DX2                !
 ! R23   R(17,18)                1.4003         estimate D2E/DX2                !
 ! R24   R(17,19)                1.4029         estimate D2E/DX2                !
 ! R25   R(18,20)                1.3957         estimate D2E/DX2                !
 ! R26   R(18,21)                1.0918         estimate D2E/DX2                !
 ! R27   R(19,22)                1.3925         estimate D2E/DX2                !
 ! R28   R(19,23)                1.094          estimate D2E/DX2                !
 ! R29   R(20,24)                1.3944         estimate D2E/DX2                !
 ! R30   R(20,25)                1.0916         estimate D2E/DX2                !
 ! R31   R(22,24)                1.3971         estimate D2E/DX2                !
 ! R32   R(22,26)                1.0914         estimate D2E/DX2                !
 ! R33   R(24,27)                1.0914         estimate D2E/DX2                !
 ! R34   R(29,30)                1.102          estimate D2E/DX2                !
 ! R35   R(29,31)                1.0983         estimate D2E/DX2                !
 ! R36   R(29,32)                1.0962         estimate D2E/DX2                !
 ! R37   R(33,35)                1.5248         estimate D2E/DX2                !
 ! R38   R(33,36)                1.0947         estimate D2E/DX2                !
 ! R39   R(33,37)                1.0991         estimate D2E/DX2                !
 ! R40   R(33,45)                1.4645         estimate D2E/DX2                !
 ! R41   R(34,38)                1.5251         estimate D2E/DX2                !
 ! R42   R(34,39)                1.0931         estimate D2E/DX2                !
 ! R43   R(34,40)                1.1018         estimate D2E/DX2                !
 ! R44   R(34,45)                1.4592         estimate D2E/DX2                !
 ! R45   R(35,41)                1.1069         estimate D2E/DX2                !
 ! R46   R(35,42)                1.0983         estimate D2E/DX2                !
 ! R47   R(35,46)                1.4081         estimate D2E/DX2                !
 ! R48   R(38,43)                1.1075         estimate D2E/DX2                !
 ! R49   R(38,44)                1.0979         estimate D2E/DX2                !
 ! R50   R(38,46)                1.4042         estimate D2E/DX2                !
 ! A1    A(2,1,6)              122.5664         estimate D2E/DX2                !
 ! A2    A(2,1,8)              122.7453         estimate D2E/DX2                !
 ! A3    A(6,1,8)              114.6395         estimate D2E/DX2                !
 ! A4    A(1,2,3)              115.2185         estimate D2E/DX2                !
 ! A5    A(1,2,47)             122.9178         estimate D2E/DX2                !
 ! A6    A(3,2,47)             119.529          estimate D2E/DX2                !
 ! A7    A(2,3,4)              118.8019         estimate D2E/DX2                !
 ! A8    A(2,3,29)             120.9113         estimate D2E/DX2                !
 ! A9    A(4,3,29)             120.2242         estimate D2E/DX2                !
 ! A10   A(3,4,5)              119.7315         estimate D2E/DX2                !
 ! A11   A(3,4,7)              118.8346         estimate D2E/DX2                !
 ! A12   A(5,4,7)              121.1876         estimate D2E/DX2                !
 ! A13   A(4,5,6)              120.8895         estimate D2E/DX2                !
 ! A14   A(4,5,45)             122.7088         estimate D2E/DX2                !
 ! A15   A(6,5,45)             116.3519         estimate D2E/DX2                !
 ! A16   A(1,6,5)              120.9881         estimate D2E/DX2                !
 ! A17   A(1,8,9)              120.5498         estimate D2E/DX2                !
 ! A18   A(1,8,16)             121.2742         estimate D2E/DX2                !
 ! A19   A(9,8,16)             117.8976         estimate D2E/DX2                !
 ! A20   A(8,9,10)             119.2901         estimate D2E/DX2                !
 ! A21   A(8,9,17)             121.9756         estimate D2E/DX2                !
 ! A22   A(10,9,17)            118.6386         estimate D2E/DX2                !
 ! A23   A(9,10,12)            121.1343         estimate D2E/DX2                !
 ! A24   A(9,10,13)            118.8819         estimate D2E/DX2                !
 ! A25   A(12,10,13)           119.9616         estimate D2E/DX2                !
 ! A26   A(12,11,15)           122.6009         estimate D2E/DX2                !
 ! A27   A(12,11,16)           118.6042         estimate D2E/DX2                !
 ! A28   A(15,11,16)           118.7948         estimate D2E/DX2                !
 ! A29   A(10,12,11)           120.1141         estimate D2E/DX2                !
 ! A30   A(10,12,14)           120.0945         estimate D2E/DX2                !
 ! A31   A(11,12,14)           119.7761         estimate D2E/DX2                !
 ! A32   A(8,16,11)            122.8626         estimate D2E/DX2                !
 ! A33   A(8,16,28)            119.3662         estimate D2E/DX2                !
 ! A34   A(11,16,28)           117.7705         estimate D2E/DX2                !
 ! A35   A(9,17,18)            120.6541         estimate D2E/DX2                !
 ! A36   A(9,17,19)            120.4825         estimate D2E/DX2                !
 ! A37   A(18,17,19)           118.8078         estimate D2E/DX2                !
 ! A38   A(17,18,20)           120.5652         estimate D2E/DX2                !
 ! A39   A(17,18,21)           119.5226         estimate D2E/DX2                !
 ! A40   A(20,18,21)           119.9047         estimate D2E/DX2                !
 ! A41   A(17,19,22)           120.6308         estimate D2E/DX2                !
 ! A42   A(17,19,23)           119.3834         estimate D2E/DX2                !
 ! A43   A(22,19,23)           119.9816         estimate D2E/DX2                !
 ! A44   A(18,20,24)           120.196          estimate D2E/DX2                !
 ! A45   A(18,20,25)           119.66           estimate D2E/DX2                !
 ! A46   A(24,20,25)           120.1439         estimate D2E/DX2                !
 ! A47   A(19,22,24)           120.1565         estimate D2E/DX2                !
 ! A48   A(19,22,26)           119.6999         estimate D2E/DX2                !
 ! A49   A(24,22,26)           120.1413         estimate D2E/DX2                !
 ! A50   A(20,24,22)           119.6405         estimate D2E/DX2                !
 ! A51   A(20,24,27)           120.191          estimate D2E/DX2                !
 ! A52   A(22,24,27)           120.1685         estimate D2E/DX2                !
 ! A53   A(3,29,30)            109.0017         estimate D2E/DX2                !
 ! A54   A(3,29,31)            111.2056         estimate D2E/DX2                !
 ! A55   A(3,29,32)            110.8136         estimate D2E/DX2                !
 ! A56   A(30,29,31)           107.1618         estimate D2E/DX2                !
 ! A57   A(30,29,32)           109.1029         estimate D2E/DX2                !
 ! A58   A(31,29,32)           109.4623         estimate D2E/DX2                !
 ! A59   A(35,33,36)           111.2723         estimate D2E/DX2                !
 ! A60   A(35,33,37)           109.642          estimate D2E/DX2                !
 ! A61   A(35,33,45)           108.1662         estimate D2E/DX2                !
 ! A62   A(36,33,37)           109.7863         estimate D2E/DX2                !
 ! A63   A(36,33,45)           109.858          estimate D2E/DX2                !
 ! A64   A(37,33,45)           108.0444         estimate D2E/DX2                !
 ! A65   A(38,34,39)           111.517          estimate D2E/DX2                !
 ! A66   A(38,34,40)           109.1841         estimate D2E/DX2                !
 ! A67   A(38,34,45)           109.1281         estimate D2E/DX2                !
 ! A68   A(39,34,40)           108.1139         estimate D2E/DX2                !
 ! A69   A(39,34,45)           111.7467         estimate D2E/DX2                !
 ! A70   A(40,34,45)           107.0165         estimate D2E/DX2                !
 ! A71   A(33,35,41)           109.2103         estimate D2E/DX2                !
 ! A72   A(33,35,42)           109.6604         estimate D2E/DX2                !
 ! A73   A(33,35,46)           111.3194         estimate D2E/DX2                !
 ! A74   A(41,35,42)           108.5654         estimate D2E/DX2                !
 ! A75   A(41,35,46)           110.4499         estimate D2E/DX2                !
 ! A76   A(42,35,46)           107.5813         estimate D2E/DX2                !
 ! A77   A(34,38,43)           109.1422         estimate D2E/DX2                !
 ! A78   A(34,38,44)           109.9089         estimate D2E/DX2                !
 ! A79   A(34,38,46)           110.838          estimate D2E/DX2                !
 ! A80   A(43,38,44)           108.6136         estimate D2E/DX2                !
 ! A81   A(43,38,46)           110.593          estimate D2E/DX2                !
 ! A82   A(44,38,46)           107.7072         estimate D2E/DX2                !
 ! A83   A(5,45,33)            122.8724         estimate D2E/DX2                !
 ! A84   A(5,45,34)            125.123          estimate D2E/DX2                !
 ! A85   A(33,45,34)           111.4447         estimate D2E/DX2                !
 ! A86   A(35,46,38)           111.8495         estimate D2E/DX2                !
 ! D1    D(6,1,2,3)             13.1198         estimate D2E/DX2                !
 ! D2    D(6,1,2,47)           175.648          estimate D2E/DX2                !
 ! D3    D(8,1,2,3)           -169.5563         estimate D2E/DX2                !
 ! D4    D(8,1,2,47)            -7.028          estimate D2E/DX2                !
 ! D5    D(2,1,6,5)             -3.7838         estimate D2E/DX2                !
 ! D6    D(8,1,6,5)            178.6923         estimate D2E/DX2                !
 ! D7    D(2,1,8,9)            137.9322         estimate D2E/DX2                !
 ! D8    D(2,1,8,16)           -48.2562         estimate D2E/DX2                !
 ! D9    D(6,1,8,9)            -44.5489         estimate D2E/DX2                !
 ! D10   D(6,1,8,16)           129.2627         estimate D2E/DX2                !
 ! D11   D(1,2,3,4)            -15.7775         estimate D2E/DX2                !
 ! D12   D(1,2,3,29)           167.0925         estimate D2E/DX2                !
 ! D13   D(47,2,3,4)          -178.9401         estimate D2E/DX2                !
 ! D14   D(47,2,3,29)            3.93           estimate D2E/DX2                !
 ! D15   D(2,3,4,5)              9.8618         estimate D2E/DX2                !
 ! D16   D(2,3,4,7)           -175.7718         estimate D2E/DX2                !
 ! D17   D(29,3,4,5)          -172.988          estimate D2E/DX2                !
 ! D18   D(29,3,4,7)             1.3784         estimate D2E/DX2                !
 ! D19   D(2,3,29,30)          -76.6437         estimate D2E/DX2                !
 ! D20   D(2,3,29,31)           41.2835         estimate D2E/DX2                !
 ! D21   D(2,3,29,32)          163.2771         estimate D2E/DX2                !
 ! D22   D(4,3,29,30)          106.267          estimate D2E/DX2                !
 ! D23   D(4,3,29,31)         -135.8057         estimate D2E/DX2                !
 ! D24   D(4,3,29,32)          -13.8121         estimate D2E/DX2                !
 ! D25   D(3,4,5,6)             -0.0094         estimate D2E/DX2                !
 ! D26   D(3,4,5,45)           177.3283         estimate D2E/DX2                !
 ! D27   D(7,4,5,6)           -174.2402         estimate D2E/DX2                !
 ! D28   D(7,4,5,45)             3.0976         estimate D2E/DX2                !
 ! D29   D(4,5,6,1)             -3.2708         estimate D2E/DX2                !
 ! D30   D(45,5,6,1)           179.229          estimate D2E/DX2                !
 ! D31   D(4,5,45,33)         -164.3569         estimate D2E/DX2                !
 ! D32   D(4,5,45,34)            6.3178         estimate D2E/DX2                !
 ! D33   D(6,5,45,33)           13.0936         estimate D2E/DX2                !
 ! D34   D(6,5,45,34)         -176.2317         estimate D2E/DX2                !
 ! D35   D(1,8,9,10)           171.1552         estimate D2E/DX2                !
 ! D36   D(1,8,9,17)           -12.4508         estimate D2E/DX2                !
 ! D37   D(16,8,9,10)           -2.8608         estimate D2E/DX2                !
 ! D38   D(16,8,9,17)          173.5332         estimate D2E/DX2                !
 ! D39   D(1,8,16,11)         -170.4148         estimate D2E/DX2                !
 ! D40   D(1,8,16,28)            9.2698         estimate D2E/DX2                !
 ! D41   D(9,8,16,11)            3.5555         estimate D2E/DX2                !
 ! D42   D(9,8,16,28)         -176.7598         estimate D2E/DX2                !
 ! D43   D(8,9,10,12)            0.355          estimate D2E/DX2                !
 ! D44   D(8,9,10,13)          178.6442         estimate D2E/DX2                !
 ! D45   D(17,9,10,12)        -176.1599         estimate D2E/DX2                !
 ! D46   D(17,9,10,13)           2.1294         estimate D2E/DX2                !
 ! D47   D(8,9,17,18)          135.2422         estimate D2E/DX2                !
 ! D48   D(8,9,17,19)          -47.5033         estimate D2E/DX2                !
 ! D49   D(10,9,17,18)         -48.3411         estimate D2E/DX2                !
 ! D50   D(10,9,17,19)         128.9133         estimate D2E/DX2                !
 ! D51   D(9,10,12,11)           1.6639         estimate D2E/DX2                !
 ! D52   D(9,10,12,14)        -179.7646         estimate D2E/DX2                !
 ! D53   D(13,10,12,11)       -176.607          estimate D2E/DX2                !
 ! D54   D(13,10,12,14)          1.9645         estimate D2E/DX2                !
 ! D55   D(15,11,12,10)        178.8605         estimate D2E/DX2                !
 ! D56   D(15,11,12,14)          0.2845         estimate D2E/DX2                !
 ! D57   D(16,11,12,10)         -1.0632         estimate D2E/DX2                !
 ! D58   D(16,11,12,14)       -179.6393         estimate D2E/DX2                !
 ! D59   D(12,11,16,8)          -1.5981         estimate D2E/DX2                !
 ! D60   D(12,11,16,28)        178.7125         estimate D2E/DX2                !
 ! D61   D(15,11,16,8)         178.4753         estimate D2E/DX2                !
 ! D62   D(15,11,16,28)         -1.2141         estimate D2E/DX2                !
 ! D63   D(9,17,18,20)         177.992          estimate D2E/DX2                !
 ! D64   D(9,17,18,21)          -2.9985         estimate D2E/DX2                !
 ! D65   D(19,17,18,20)          0.6923         estimate D2E/DX2                !
 ! D66   D(19,17,18,21)        179.7018         estimate D2E/DX2                !
 ! D67   D(9,17,19,22)        -177.7703         estimate D2E/DX2                !
 ! D68   D(9,17,19,23)           1.4929         estimate D2E/DX2                !
 ! D69   D(18,17,19,22)         -0.4658         estimate D2E/DX2                !
 ! D70   D(18,17,19,23)        178.7974         estimate D2E/DX2                !
 ! D71   D(17,18,20,24)         -0.5295         estimate D2E/DX2                !
 ! D72   D(17,18,20,25)        179.4707         estimate D2E/DX2                !
 ! D73   D(21,18,20,24)       -179.5352         estimate D2E/DX2                !
 ! D74   D(21,18,20,25)          0.465          estimate D2E/DX2                !
 ! D75   D(17,19,22,24)          0.0745         estimate D2E/DX2                !
 ! D76   D(17,19,22,26)        179.5164         estimate D2E/DX2                !
 ! D77   D(23,19,22,24)       -179.1843         estimate D2E/DX2                !
 ! D78   D(23,19,22,26)          0.2576         estimate D2E/DX2                !
 ! D79   D(18,20,24,22)          0.1274         estimate D2E/DX2                !
 ! D80   D(18,20,24,27)       -179.8203         estimate D2E/DX2                !
 ! D81   D(25,20,24,22)       -179.8728         estimate D2E/DX2                !
 ! D82   D(25,20,24,27)          0.1795         estimate D2E/DX2                !
 ! D83   D(19,22,24,20)          0.0985         estimate D2E/DX2                !
 ! D84   D(19,22,24,27)       -179.9538         estimate D2E/DX2                !
 ! D85   D(26,22,24,20)       -179.3409         estimate D2E/DX2                !
 ! D86   D(26,22,24,27)          0.6068         estimate D2E/DX2                !
 ! D87   D(36,33,35,41)         55.6449         estimate D2E/DX2                !
 ! D88   D(36,33,35,42)        -63.2053         estimate D2E/DX2                !
 ! D89   D(36,33,35,46)        177.8638         estimate D2E/DX2                !
 ! D90   D(37,33,35,41)        177.2904         estimate D2E/DX2                !
 ! D91   D(37,33,35,42)         58.4402         estimate D2E/DX2                !
 ! D92   D(37,33,35,46)        -60.4907         estimate D2E/DX2                !
 ! D93   D(45,33,35,41)        -65.1121         estimate D2E/DX2                !
 ! D94   D(45,33,35,42)        176.0377         estimate D2E/DX2                !
 ! D95   D(45,33,35,46)         57.1068         estimate D2E/DX2                !
 ! D96   D(35,33,45,5)         115.0927         estimate D2E/DX2                !
 ! D97   D(35,33,45,34)        -56.7209         estimate D2E/DX2                !
 ! D98   D(36,33,45,5)          -6.5406         estimate D2E/DX2                !
 ! D99   D(36,33,45,34)       -178.3542         estimate D2E/DX2                !
 ! D100  D(37,33,45,5)        -126.289          estimate D2E/DX2                !
 ! D101  D(37,33,45,34)         61.8974         estimate D2E/DX2                !
 ! D102  D(39,34,38,43)        -58.4226         estimate D2E/DX2                !
 ! D103  D(39,34,38,44)         60.5935         estimate D2E/DX2                !
 ! D104  D(39,34,38,46)        179.539          estimate D2E/DX2                !
 ! D105  D(40,34,38,43)       -177.8302         estimate D2E/DX2                !
 ! D106  D(40,34,38,44)        -58.8141         estimate D2E/DX2                !
 ! D107  D(40,34,38,46)         60.1314         estimate D2E/DX2                !
 ! D108  D(45,34,38,43)         65.5138         estimate D2E/DX2                !
 ! D109  D(45,34,38,44)       -175.4702         estimate D2E/DX2                !
 ! D110  D(45,34,38,46)        -56.5247         estimate D2E/DX2                !
 ! D111  D(38,34,45,5)        -114.8066         estimate D2E/DX2                !
 ! D112  D(38,34,45,33)         56.7856         estimate D2E/DX2                !
 ! D113  D(39,34,45,5)           8.994          estimate D2E/DX2                !
 ! D114  D(39,34,45,33)       -179.4137         estimate D2E/DX2                !
 ! D115  D(40,34,45,5)         127.167          estimate D2E/DX2                !
 ! D116  D(40,34,45,33)        -61.2408         estimate D2E/DX2                !
 ! D117  D(33,35,46,38)        -59.3531         estimate D2E/DX2                !
 ! D118  D(41,35,46,38)         62.1465         estimate D2E/DX2                !
 ! D119  D(42,35,46,38)       -179.5198         estimate D2E/DX2                !
 ! D120  D(34,38,46,35)         58.5718         estimate D2E/DX2                !
 ! D121  D(43,38,46,35)        -62.6149         estimate D2E/DX2                !
 ! D122  D(44,38,46,35)        178.8371         estimate D2E/DX2                !
 --------------------------------------------------------------------------------
 Trust Radius=3.00D-01 FncErr=1.00D-07 GrdErr=1.00D-06 EigMax=2.50D+02 EigMin=1.00D-04
 Number of steps in this run=    268 maximum allowed number of steps=    282.
 GradGradGradGradGradGradGradGradGradGradGradGradGradGradGradGradGradGrad

 Leave Link  103 at Fri Jan 31 11:17:14 2025, MaxMem=  8589934592 cpu:               0.4 elap:               0.0
 (Enter /ihome/crc/install/gaussian/c01/avx2/tar/g16/l202.exe)
                          Input orientation:                          
 ---------------------------------------------------------------------
 Center     Atomic      Atomic             Coordinates (Angstroms)
 Number     Number       Type             X           Y           Z
 ---------------------------------------------------------------------
      1          6           0       -1.717341   -2.021134    0.095143
      2          6           0       -0.485185   -2.132917    0.874472
      3          6           0       -0.559396   -1.604636    2.238217
      4          6           0       -1.596553   -0.783584    2.569144
      5          6           0       -2.694850   -0.623678    1.660885
      6          7           0       -2.717633   -1.280724    0.470156
      7          1           0       -1.615180   -0.335619    3.559273
      8          6           0       -1.904757   -2.700139   -1.220215
      9          6           0       -3.128881   -3.336425   -1.532986
     10          6           0       -3.345785   -3.801360   -2.835156
     11          6           0       -1.150777   -3.068332   -3.518553
     12          6           0       -2.374525   -3.654327   -3.824054
     13          1           0       -4.283220   -4.311053   -3.063511
     14          1           0       -2.563039   -4.019632   -4.834544
     15          1           0       -0.356120   -2.949688   -4.255360
     16          6           0       -0.934237   -2.619060   -2.223940
     17          6           0       -4.168259   -3.599368   -0.498498
     18          6           0       -5.517713   -3.329660   -0.757561
     19          6           0       -3.818089   -4.175383    0.731798
     20          6           0       -6.494638   -3.615529    0.197320
     21          1           0       -5.802811   -2.876973   -1.709331
     22          6           0       -4.793222   -4.464996    1.682759
     23          1           0       -2.768917   -4.408308    0.936180
     24          6           0       -6.136166   -4.184735    1.418732
     25          1           0       -7.541268   -3.391231   -0.016785
     26          1           0       -4.504707   -4.920388    2.631763
     27          1           0       -6.900534   -4.410954    2.164237
     28          9           0        0.252710   -2.084522   -1.943032
     29          6           0        0.511755   -1.902492    3.235893
     30          1           0        0.382496   -2.933004    3.604232
     31          1           0        1.508335   -1.844622    2.778005
     32          1           0        0.458379   -1.209257    4.083371
     33          6           0       -5.014929    0.032300    1.194702
     34          6           0       -3.904264    0.963963    3.127367
     35          6           0       -6.095640   -0.490333    2.134931
     36          1           0       -4.886061   -0.628452    0.331421
     37          1           0       -5.279373    1.043067    0.853412
     38          6           0       -5.030774    0.416633    3.997688
     39          1           0       -2.967786    1.041650    3.685790
     40          1           0       -4.176744    1.971197    2.773672
     41          1           0       -5.847108   -1.526230    2.435431
     42          1           0       -7.063772   -0.499391    1.616382
     43          1           0       -4.739518   -0.579278    4.384756
     44          1           0       -5.204181    1.086806    4.849850
     45          7           0       -3.760459    0.120630    1.945215
     46          8           0       -6.228650    0.332623    3.269734
     47         53           0        1.103850   -3.442609    0.342744
 ---------------------------------------------------------------------
                    Distance matrix (angstroms):
                    1          2          3          4          5
     1  C    0.000000
     2  C    1.462210   0.000000
     3  C    2.471249   1.464373   0.000000
     4  C    2.768899   2.434697   1.363574   0.000000
     5  C    2.315158   2.789062   2.419867   1.434141   0.000000
     6  N    1.299779   2.423536   2.808727   2.430991   1.360171
     7  H    3.853777   3.422766   2.114302   1.086911   2.202849
     8  C    1.492092   2.593191   3.869221   4.257630   3.638224
     9  C    2.524528   3.772720   4.880914   5.068777   4.212860
    10  C    3.795746   4.972733   6.191016   6.432204   5.543984
    11  C    3.804789   4.540560   5.969300   6.517580   5.931869
    12  C    4.296431   5.287763   6.651846   7.051198   6.274711
    13  H    4.669535   5.888723   7.021387   7.168544   6.199965
    14  H    5.386187   6.361606   7.737618   8.137610   7.330790
    15  H    4.652098   5.196051   6.634533   7.266673   6.773621
    16  C    2.519705   3.168302   4.591340   5.175064   4.708840
    17  C    2.974934   4.195302   4.948985   4.894154   3.960884
    18  C    4.108792   5.424211   6.044444   5.738028   4.597801
    19  C    3.075591   3.911556   4.415554   4.451445   3.839203
    20  C    5.037371   6.226572   6.590603   6.134876   5.052879
    21  H    4.547489   5.958759   6.685460   6.354544   5.108338
    22  C    4.237220   4.964988   5.139599   4.955519   4.377141
    23  H    2.740758   3.224383   3.799718   4.144832   3.854103
    24  C    5.095005   6.036536   6.199099   5.787863   4.958066
    25  H    5.983964   7.222603   7.551390   6.987595   5.827666
    26  H    4.754947   5.197559   5.168614   5.057117   4.762342
    27  H    6.071069   6.928900   6.934762   6.438476   5.681954
    28  F    2.835362   2.912930   4.286333   5.046974   4.879589
    29  C    3.853214   2.573576   1.493801   2.478199   3.794513
    30  H    4.189812   2.973987   2.125493   3.099685   4.310411
    31  H    4.199273   2.771403   2.150459   3.287819   4.517236
    32  H    4.615069   3.469941   2.144011   2.587823   4.019228
    33  C    4.037290   5.030834   4.860068   3.773599   2.455687
    34  C    4.784122   5.133839   4.310038   2.948061   2.476662
    35  C    5.066911   5.980305   5.648215   4.529495   3.436259
    36  H    3.469319   4.682524   4.827923   3.981499   2.562987
    37  H    4.759451   5.750787   5.586251   4.454610   3.179593
    38  C    5.670221   6.075941   5.212915   3.908341   3.464020
    39  H    4.882315   4.913725   3.859876   2.541389   2.635916
    40  H    5.400175   5.837664   5.114538   3.779952   3.188680
    41  H    4.772510   5.617373   5.291969   4.317015   3.369162
    42  H    5.763176   6.818845   6.626851   5.556888   4.370916
    43  H    5.441809   5.730204   4.809616   3.635439   3.406187
    44  H    6.665177   6.959825   5.969800   4.659931   4.403634
    45  N    3.490595   4.117327   3.648177   2.426804   1.330549
    46  O    5.997509   6.693546   6.079263   4.815918   3.998831
    47  I    3.168756   2.126749   3.120473   4.395389   4.910600
                    6          7          8          9         10
     6  N    0.000000
     7  H    3.413396   0.000000
     8  C    2.352203   5.340254   0.000000
     9  C    2.899588   6.101412   1.414625   0.000000
    10  C    4.203959   7.476301   2.428432   1.399592   0.000000
    11  C    4.643316   7.601251   2.446714   2.815536   2.412969
    12  C    4.918532   8.130433   2.812674   2.432922   1.393874
    13  H    4.911289   8.172134   3.413191   2.150559   1.091200
    14  H    5.972048   9.215560   3.903559   3.418660   2.158214
    15  H    5.540098   8.335891   3.416527   3.905008   3.417663
    16  C    3.497113   6.254865   1.398552   2.410081   2.754448
    17  C    2.901502   5.799636   2.540262   1.489836   2.485404
    18  C    3.680472   6.544395   3.696457   2.511543   3.042396
    19  C    3.107814   5.252734   3.106049   2.511594   3.617475
    20  C    4.448766   6.772713   4.890230   3.794757   4.375582
    21  H    4.100792   7.193950   3.932598   2.718841   2.856388
    22  C    3.989745   5.538322   4.459283   3.792719   4.790307
    23  H    3.162529   4.979811   2.883514   2.715748   3.863177
    24  C    4.584697   6.311650   5.203161   4.298376   5.101839
    25  H    5.287609   7.565942   5.804835   4.665943   5.070848
    26  H    4.594925   5.498159   5.150435   4.663365   5.699344
    27  H    5.492259   6.818317   6.272096   5.389753   6.164558
    28  F    3.910563   6.068199   2.357141   3.629126   4.085656
    29  C    4.297074   2.661488   5.131537   6.168679   7.439351
    30  H    4.707787   3.277063   5.344253   6.235666   7.491318
    31  H    4.847984   3.555814   5.326056   6.504913   7.674561
    32  H    4.811183   2.310318   5.994595   6.995480   8.310035
    33  C    2.743459   4.157506   4.792830   4.727131   5.807129
    34  C    3.675253   2.667464   6.027034   6.388540   7.653227
    35  C    3.848003   4.703957   5.805493   5.509584   6.574676
    36  H    2.268653   4.604720   3.948118   3.727843   4.739937
    37  H    3.479857   4.759072   5.449730   5.431341   6.388487
    38  C    4.546991   3.524822   6.834673   6.949172   8.204780
    39  H    3.974456   1.934533   6.260982   6.813891   8.131443
    40  H    4.243840   3.535559   6.552438   6.914924   8.091468
    41  H    3.703538   4.537597   5.503085   5.139445   6.261942
    42  H    4.562153   5.786951   6.285301   5.783654   6.674026
    43  H    4.461405   3.240722   6.629451   6.724261   8.028165
    44  H    5.565055   4.070603   7.878632   8.038186   9.295543
    45  N    2.286280   2.723154   4.628209   4.944492   6.197250
    46  O    4.771558   4.670598   6.932052   6.792393   7.916464
    47  I    4.392461   5.233791   3.470709   4.630945   5.479690
                   11         12         13         14         15
    11  C    0.000000
    12  C    1.390784   0.000000
    13  H    3.400532   2.157042   0.000000
    14  H    2.152043   1.090906   2.486063   0.000000
    15  H    1.090156   2.180940   4.323879   2.520065   0.000000
    16  C    1.387356   2.388843   3.844920   3.380806   2.137803
    17  C    4.302084   3.778866   2.664395   4.642698   5.391521
    18  C    5.173152   4.403228   2.793655   5.082121   6.246681
    19  C    5.138638   4.807407   3.826111   5.708202   6.193489
    20  C    6.531768   5.757455   4.000893   6.398471   7.612562
    21  H    4.995130   4.102375   2.489889   4.644217   6.012819
    22  C    6.501671   6.068959   4.776074   6.902703   7.566062
    23  H    4.925298   4.835686   4.277862   5.787461   5.907728
    24  C    7.104734   6.474417   4.851790   7.204024   8.193265
    25  H    7.294177   6.423375   4.554502   6.956181   8.353851
    26  H    7.246057   6.915068   5.732058   7.767057   8.278097
    27  H    8.194903   7.544327   5.847193   8.243175   9.283096
    28  F    2.328073   3.592338   5.175671   4.475928   2.542842
    29  C    7.053066   7.825752   8.274989   8.892052   7.613718
    30  H    7.287202   7.956187   8.253891   9.003881   7.894240
    31  H    6.943701   7.870122   8.587706   8.902677   7.359727
    32  H    7.989668   8.748205   9.120407   9.826311   8.557274
    33  C    6.838155   6.763938   6.126377   7.666924   7.765303
    34  C    8.246778   8.484749   8.142258   9.488263   9.078031
    35  C    7.941009   7.705002   6.701236   8.573727   8.934559
    36  H    5.893018   5.721163   5.044852   6.601797   6.851793
    37  H    7.284434   7.237565   6.708294   8.084691   8.141257
    38  C    9.148401   9.209127   8.530556  10.187173  10.064656
    39  H    8.490938   8.877044   8.714061   9.918492   9.263554
    40  H    8.610774   8.855761   8.576171   9.817282   9.392527
    41  H    7.738445   7.467850   6.359194   8.357912   8.771765
    42  H    8.241998   7.844807   6.645422   8.617606   9.245210
    43  H    9.029770   9.079300   8.343323  10.078124   9.974198
    44  H   10.184568  10.282116   9.623218  11.262275  11.077086
    45  N    6.843441   7.032466   6.708236   8.033724   7.711258
    46  O    9.134119   9.003992   8.090638   9.902431  10.093920
    47  I    4.486986   5.431954   6.432518   6.370506   4.849437
                   16         17         18         19         20
    16  C    0.000000
    17  C    3.794345   0.000000
    18  C    4.864511   1.400315   0.000000
    19  C    4.413064   1.402869   2.412915   0.000000
    20  C    6.146016   2.428263   1.395672   2.786219   0.000000
    21  H    4.902485   2.158641   1.091821   3.403542   2.158566
    22  C    5.793232   2.428533   2.787299   1.392511   2.413077
    23  H    4.068638   2.161213   3.404133   1.093978   3.880130
    24  C    6.540678   2.809107   2.418654   2.417736   1.394398
    25  H    7.008612   3.413584   2.155763   3.877800   1.091597
    26  H    6.451528   3.414209   3.878674   2.153217   3.404261
    27  H    7.619953   3.900533   3.408562   3.407175   2.160142
    28  F    1.331722   4.891462   6.021087   5.300738   7.242361
    29  C    5.693342   6.223150   7.371497   5.494003   7.826683
    30  H    5.983305   6.163263   7.348132   5.238253   7.705054
    31  H    5.620086   6.785155   8.004431   6.163619   8.593231
    32  H    6.611285   6.936277   7.977744   6.190244   8.320816
    33  C    5.947173   4.095460   3.920063   4.399012   4.060907
    34  C    7.091939   5.834431   6.010914   5.670895   6.022206
    35  C    7.083171   4.507310   4.094177   4.553637   3.698701
    36  H    5.109726   3.167072   2.980166   3.725800   3.395310
    37  H    6.462312   4.961294   4.666131   5.420550   4.858996
    38  C    8.043985   6.089982   6.073238   5.763962   5.730971
    39  H    7.242999   6.363053   6.734526   6.055288   6.804221
    40  H    7.520667   6.460523   6.508985   6.486781   6.574324
    41  H    6.858594   3.965397   3.681855   3.746638   3.129474
    42  H    7.537391   4.739891   4.004538   4.982957   3.471018
    43  H    7.894032   5.770048   5.883333   5.208177   5.462041
    44  H    9.055626   7.185972   7.144686   6.824239   6.739679
    45  N    5.733697   4.469499   4.722017   4.464463   4.948713
    46  O    8.180690   5.822829   5.489704   5.707367   5.009829
    47  I    3.379334   5.341104   6.713310   4.991373   7.601846
                   21         22         23         24         25
    21  H    0.000000
    22  C    3.879093   0.000000
    23  H    4.306765   2.158334   0.000000
    24  C    3.406779   1.397052   3.408989   0.000000
    25  H    2.480203   3.404876   4.971712   2.159785   0.000000
    26  H    4.970484   1.091435   2.479959   2.162010   4.309737
    27  H    4.308436   2.162292   4.310266   1.091426   2.491432
    28  F    6.111622   6.653905   4.777036   7.518649   8.134126
    29  C    8.079517   6.092736   4.725527   7.259860   8.811778
    30  H    8.154454   5.729495   4.384795   6.988290   8.723977
    31  H    8.640300   6.911986   5.315984   8.109386   9.596779
    32  H    8.691327   6.628883   5.527583   7.709850   9.250224
    33  C    4.185455   4.529131   4.983011   4.369296   4.423873
    34  C    6.461495   5.687771   5.911989   5.865996   6.487003
    35  C    4.534330   4.206982   5.277747   3.763401   3.890364
    36  H    3.171899   4.068637   4.374396   3.923284   3.847638
    37  H    4.712574   5.591325   6.002227   5.327626   5.053356
    38  C    6.634301   5.407923   6.145639   5.389387   6.076052
    39  H    7.245709   6.137385   6.107532   6.518687   7.367241
    40  H    6.800453   6.557036   6.786489   6.600810   6.918259
    41  H    4.359532   3.211470   4.475420   2.860923   3.515931
    42  H    4.278234   4.570101   5.847058   3.805428   3.355291
    43  H    6.599083   4.733125   5.517011   4.873114   5.927094
    44  H    7.687181   6.404831   7.172420   6.358483   7.014195
    45  N    5.149032   4.707807   4.744743   4.945436   5.520609
    46  O    5.939186   5.253198   6.315984   4.882754   5.137243
    47  I    7.227235   6.133219   4.035228   7.357060   8.652743
                   26         27         28         29         30
    26  H    0.000000
    27  H    2.493610   0.000000
    28  F    7.183586   8.570347   0.000000
    29  C    5.885368   7.898282   5.188594   0.000000
    30  H    5.364713   7.569706   5.613279   1.101969   0.000000
    31  H    6.755620   8.813163   4.891047   1.098263   1.770520
    32  H    6.364894   8.251517   6.093104   1.096195   1.790708
    33  C    5.182141   4.923211   6.486473   6.201138   6.612946
    34  C    5.935633   6.228562   7.230674   5.265887   5.812922
    35  C    4.733212   4.002497   7.711859   6.845727   7.077551
    36  H    4.884436   4.660970   5.805191   6.260635   6.616641
    37  H    6.271000   5.838901   6.943044   6.920238   7.445328
    38  C    5.534103   5.492098   8.334455   6.056261   6.377960
    39  H    6.246519   6.892933   7.199179   4.580129   5.198934
    40  H    6.900844   6.965795   7.636505   6.099274   6.747421
    41  H    3.655256   3.082999   7.529303   6.420082   6.492540
    42  H    5.208169   3.953115   8.289329   7.872745   8.082136
    43  H    4.687575   4.927721   8.199329   5.535942   5.690718
    44  H    6.441704   6.349448   9.272444   6.649262   6.994383
    45  N    5.141704   5.517544   6.007219   4.900070   5.407504
    46  O    5.565349   4.916815   8.661613   7.101404   7.381291
    47  I    6.235331   8.265936   2.791704   3.330593   3.378957
                   31         32         33         34         35
    31  H    0.000000
    32  H    1.791669   0.000000
    33  C    6.970126   6.312129   0.000000
    34  C    6.107899   4.966838   2.415940   0.000000
    35  C    7.750360   6.875204   1.524832   2.811056   0.000000
    36  H    6.953642   6.555723   1.094739   3.364079   2.175961
    37  H    7.623371   6.958980   1.099118   2.658581   2.158680
    38  C    7.025728   5.725527   2.829257   1.525141   2.329461
    39  H    5.402805   4.118648   3.378624   1.093098   3.812559
    40  H    6.846942   5.771912   2.637238   1.101756   3.185794
    41  H    7.370297   6.524979   2.158922   3.233339   1.106865
    42  H    8.754429   7.948126   2.158302   3.795652   1.098296
    43  H    6.574071   5.244601   3.259804   2.158766   2.628439
    44  H    7.612075   6.158245   3.808925   2.161440   3.263871
    45  N    5.684711   4.913136   1.464502   1.459237   2.421227
    46  O    8.052523   6.910554   2.422616   2.412805   1.408093
    47  I    2.940691   4.404178   7.088038   7.228638   7.985019
                   36         37         38         39         40
    36  H    0.000000
    37  H    1.794755   0.000000
    38  C    3.815057   3.215695   0.000000
    39  H    4.209609   3.655927   2.178037   0.000000
    40  H    3.636742   2.400961   2.155053   1.776963   0.000000
    41  H    2.481224   3.070243   2.623312   4.055601   3.890568
    42  H    2.531839   2.478988   3.262330   4.840905   3.972160
    43  H    4.056281   3.923498   1.107470   2.500999   3.068750
    44  H    4.843502   3.997385   1.097899   2.521614   2.479574
    45  N    2.105335   2.085671   2.431864   2.122783   2.069839
    46  O    3.370444   2.691555   1.404237   3.362894   2.672325
    47  I    6.618054   7.818415   8.117018   6.918291   7.943764
                   41         42         43         44         45
    41  H    0.000000
    42  H    1.790394   0.000000
    43  H    2.433792   3.615582   0.000000
    44  H    3.615347   4.053321   1.791106   0.000000
    45  N    2.703066   3.377045   2.720255   3.384484   0.000000
    46  O    2.072913   2.030578   2.071799   2.028570   2.809138
    47  I    7.507840   8.774664   7.660383   8.978912   6.239077
                   46         47
    46  O    0.000000
    47  I    8.751297   0.000000
 Symmetry turned off by external request.
 Stoichiometry    C22H20FIN2O
 Framework group  C1[X(C22H20FIN2O)]
 Deg. of freedom   135
 Full point group                 C1      NOp   1
 Rotational constants (GHZ):           0.2158197           0.1173740           0.0908560
 Leave Link  202 at Fri Jan 31 11:17:14 2025, MaxMem=  8589934592 cpu:               0.5 elap:               0.0
 (Enter /ihome/crc/install/gaussian/c01/avx2/tar/g16/l301.exe)
 General basis read from cards:  (5D, 7F)
 Centers:       1      2      3      4      5      8      9     10     11     12
 Centers:      16     17     18     19     20     22     24     29     33     34
 Centers:      35     38      7     13     14     15     21     23     25     26
 Centers:      27     30     31     32     36     37     39     40     41     42
 Centers:      43     44      6     45     28     46
 def2svp
 ****
 Centers:      47
 def2tzvp
 ****
 ======================================================================================================
                                       Pseudopotential Parameters
 ======================================================================================================
  Center     Atomic      Valence      Angular      Power
  Number     Number     Electrons     Momentum     of R      Exponent        Coefficient   SO-Coeffient
 ======================================================================================================
    1          6
                                   No pseudopotential on this center.
    2          6
                                   No pseudopotential on this center.
    3          6
                                   No pseudopotential on this center.
    4          6
                                   No pseudopotential on this center.
    5          6
                                   No pseudopotential on this center.
    6          7
                                   No pseudopotential on this center.
    7          1
                                   No pseudopotential on this center.
    8          6
                                   No pseudopotential on this center.
    9          6
                                   No pseudopotential on this center.
   10          6
                                   No pseudopotential on this center.
   11          6
                                   No pseudopotential on this center.
   12          6
                                   No pseudopotential on this center.
   13          1
                                   No pseudopotential on this center.
   14          1
                                   No pseudopotential on this center.
   15          1
                                   No pseudopotential on this center.
   16          6
                                   No pseudopotential on this center.
   17          6
                                   No pseudopotential on this center.
   18          6
                                   No pseudopotential on this center.
   19          6
                                   No pseudopotential on this center.
   20          6
                                   No pseudopotential on this center.
   21          1
                                   No pseudopotential on this center.
   22          6
                                   No pseudopotential on this center.
   23          1
                                   No pseudopotential on this center.
   24          6
                                   No pseudopotential on this center.
   25          1
                                   No pseudopotential on this center.
   26          1
                                   No pseudopotential on this center.
   27          1
                                   No pseudopotential on this center.
   28          9
                                   No pseudopotential on this center.
   29          6
                                   No pseudopotential on this center.
   30          1
                                   No pseudopotential on this center.
   31          1
                                   No pseudopotential on this center.
   32          1
                                   No pseudopotential on this center.
   33          6
                                   No pseudopotential on this center.
   34          6
                                   No pseudopotential on this center.
   35          6
                                   No pseudopotential on this center.
   36          1
                                   No pseudopotential on this center.
   37          1
                                   No pseudopotential on this center.
   38          6
                                   No pseudopotential on this center.
   39          1
                                   No pseudopotential on this center.
   40          1
                                   No pseudopotential on this center.
   41          1
                                   No pseudopotential on this center.
   42          1
                                   No pseudopotential on this center.
   43          1
                                   No pseudopotential on this center.
   44          1
                                   No pseudopotential on this center.
   45          7
                                   No pseudopotential on this center.
   46          8
                                   No pseudopotential on this center.
   47         53           25
                                      G and up 
                                                     2        1.0000000        0.00000000    0.00000000
                                      S - G
                                                     2       40.0158350       49.99429300    0.00000000
                                                     2       17.4297470      281.02531700    0.00000000
                                                     2        9.0054840       61.57332600    0.00000000
                                      P - G
                                                     2       15.3554660       67.44284100 -134.88568300
                                                     2       14.9718330      134.88113700  134.88113700
                                                     2        8.9601640       14.67505100  -29.35010100
                                                     2        8.2590960       29.37566600   29.37566600
                                      D - G
                                                     2       15.0689080       35.43952900  -35.43952900
                                                     2       14.5553220       53.17605700   35.45070400
                                                     2        6.7186470        9.06719500   -9.06719500
                                                     2        6.4563930       13.20693700    8.80462400
                                                     2        1.1917790        0.08933500   -0.08933500
                                                     2        1.2911570        0.05238000    0.03492000
                                      F - G
                                                     2       19.4586090      -21.84204000   14.56136000
                                                     2       19.3492600      -28.46819100  -14.23409500
                                                     2        4.8237670       -0.24371300    0.16247500
                                                     2        4.8843150       -0.32080400   -0.16040200
 ======================================================================================================
 Ernie: Thresh=  0.10000D-02 Tol=  0.10000D-05 Strict=F.
   514 basis functions,   899 primitive gaussians,   549 cartesian basis functions
   104 alpha electrons      104 beta electrons
       nuclear repulsion energy      2820.5767642447 Hartrees.
 IExCor= 4336 DFT=T Ex+Corr=M062X ExCW=0 ScaHFX=  0.540000
 ScaDFX=  1.000000  1.000000  1.000000  1.000000 ScalE2=  1.000000  1.000000
 IRadAn=      5 IRanWt=     -1 IRanGd=            0 ICorTp=0 IEmpDi=131
 NAtoms=   47 NActive=   47 NUniq=   47 SFac= 1.00D+00 NAtFMM=   60 NAOKFM=F Big=F
 Integral buffers will be    131072 words long.
 Raffenetti 2 integral format.
 Two-electron integral symmetry is turned off.
 R6Disp:  Grimme-D3 Dispersion energy=       -0.0042093331 Hartrees.
 Nuclear repulsion after empirical dispersion term =     2820.5725549116 Hartrees.
 ------------------------------------------------------------------------------
 Polarizable Continuum Model (PCM)
 =================================
 Model                : PCM.
 Atomic radii         : SMD-Coulomb.
 Polarization charges : Total charges.
 Charge compensation  : None.
 Solution method      : On-the-fly selection.
 Cavity type          : VdW (van der Waals Surface) (Alpha=1.000).
 Cavity algorithm     : GePol (No added spheres)
                        Default sphere list used, NSphG=   47.
                        Lebedev-Laikov grids with approx.  5.0 points / Ang**2.
                        Smoothing algorithm: York/Karplus (Gamma=1.0000).
                        Polarization charges: spherical gaussians, with
                                              point-specific exponents (IZeta= 3).
                        Self-potential: point-specific (ISelfS= 7).
                        Self-field    : sphere-specific E.n sum rule (ISelfD= 2).
 1st derivatives      : Analytical E(r).r(x)/FMM algorithm (CHGder, D1EAlg=3).
                        Cavity 1st derivative terms included.
 Solvent              : PropylEthanoate, Eps=   5.520500 Eps(inf)=   1.916010
 ------------------------------------------------------------------------------
 GePol: Number of generator spheres                  =      47
 GePol: Total number of spheres                      =      47
 GePol: Number of exposed spheres                    =      47 (100.00%)
 GePol: Number of points                             =    3536
 GePol: Average weight of points                     =       0.11
 GePol: Minimum weight of points                     =   0.24D-11
 GePol: Maximum weight of points                     =    0.21501
 GePol: Number of points with low weight             =     219
 GePol: Fraction of low-weight points (<1% of avg)   =       6.19%
 GePol: Cavity surface area                          =    394.143 Ang**2
 GePol: Cavity volume                                =    391.550 Ang**3
 ------------------------------------------------------------------------------
 Atomic radii for non-electrostatic terms: SMD-CDS.
 ------------------------------------------------------------------------------
 PCM non-electrostatic energy =        -0.0098693575 Hartrees.
 Nuclear repulsion after PCM non-electrostatic terms =     2820.5626855542 Hartrees.
 Leave Link  301 at Fri Jan 31 11:17:14 2025, MaxMem=  8589934592 cpu:               1.3 elap:               0.1
 (Enter /ihome/crc/install/gaussian/c01/avx2/tar/g16/l302.exe)
 NPDir=0 NMtPBC=     1 NCelOv=     1 NCel=       1 NClECP=     1 NCelD=      1
         NCelK=      1 NCelE2=     1 NClLst=     1 CellRange=     0.0.
 One-electron integrals computed using PRISM.
   1 Symmetry operations used in ECPInt.
 ECPInt:  NShTT=   27028 NPrTT=   98779 LenC2=   24238 LenP2D=   59907.
 LDataN:  DoStor=T MaxTD1= 7 Len=  274
 NBasis=   514 RedAO= T EigKep=  2.23D-04  NBF=   514
 NBsUse=   514 1.00D-06 EigRej= -1.00D+00 NBFU=   514
 Precomputing XC quadrature grid using
 IXCGrd= 4 IRadAn=           5 IRanWt=          -1 IRanGd=           0 AccXCQ= 0.00D+00.
 Defaulting to unpruned grid for atomic number  53.
 Generated NRdTot=       0 NPtTot=           0 NUsed=           0 NTot=          32
 NSgBfM=   546   546   546   546   546 MxSgAt=    47 MxSgA2=    47.
 Leave Link  302 at Fri Jan 31 11:17:14 2025, MaxMem=  8589934592 cpu:              13.2 elap:               0.4
 (Enter /ihome/crc/install/gaussian/c01/avx2/tar/g16/l303.exe)
 DipDrv:  MaxL=1.
 Leave Link  303 at Fri Jan 31 11:17:15 2025, MaxMem=  8589934592 cpu:               2.8 elap:               0.1
 (Enter /ihome/crc/install/gaussian/c01/avx2/tar/g16/l401.exe)
 ExpMin= 7.49D-02 ExpMax= 5.90D+03 ExpMxC= 4.35D+02 IAcc=3 IRadAn=         5 AccDes= 0.00D+00
 Harris functional with IExCor= 1009 and IRadAn=       5 diagonalized for initial guess.
 HarFok:  IExCor= 1009 AccDes= 0.00D+00 IRadAn=         5 IDoV= 1 UseB2=F ITyADJ=14
 ICtDFT=  3500011 ScaDFX=  1.000000  1.000000  1.000000  1.000000
 Defaulting to unpruned grid for atomic number  53.
 FoFCou: FMM=F IPFlag=           0 FMFlag=      100000 FMFlg1=           0
         NFxFlg=           0 DoJE=T BraDBF=F KetDBF=T FulRan=T
         wScrn=  0.000000 ICntrl=       500 IOpCl=  0 I1Cent=   200000004 NGrid=           0
         NMat0=    1 NMatS0=      1 NMatT0=    0 NMatD0=    1 NMtDS0=    0 NMtDT0=    0
 Symmetry not used in FoFCou.
 Harris En= -1430.97555841855    
 JPrj=0 DoOrth=F DoCkMO=F.
 Leave Link  401 at Fri Jan 31 11:17:15 2025, MaxMem=  8589934592 cpu:              20.2 elap:               0.7
 (Enter /ihome/crc/install/gaussian/c01/avx2/tar/g16/l502.exe)
 Two-electron integral symmetry not used.
 Closed shell SCF:
 Using DIIS extrapolation, IDIIS=  1040.
 NGot=  8589934592 LenX=  8589308773 LenY=  8589006823
 Requested convergence on RMS density matrix=1.00D-08 within 128 cycles.
 Requested convergence on MAX density matrix=1.00D-06.
 Requested convergence on             energy=1.00D-06.
 No special actions if energy rises.
 Fock matrices will be formed incrementally for  20 cycles.

 Cycle   1  Pass 1  IDiag  1:
 FoFJK:  IHMeth= 1 ICntrl=       0 DoSepK=F KAlg= 0 I1Cent=           0 FoldK=F
 IRaf= 830000000 NMat=       1 IRICut=       1 DoRegI=T DoRafI=F ISym2E= 0 IDoP0=0 IntGTp=1.
 FoFCou: FMM=F IPFlag=           0 FMFlag=      100000 FMFlg1=           0
         NFxFlg=           0 DoJE=F BraDBF=F KetDBF=F FulRan=T
         wScrn=  0.000000 ICntrl=         0 IOpCl=  0 I1Cent=           0 NGrid=           0
         NMat0=    1 NMatS0=      1 NMatT0=    0 NMatD0=    1 NMtDS0=    0 NMtDT0=    0
 Symmetry not used in FoFCou.
 Defaulting to unpruned grid for atomic number  53.
 Defaulting to unpruned grid for atomic number  53.
 Defaulting to unpruned grid for atomic number  53.
 Defaulting to unpruned grid for atomic number  53.
 Defaulting to unpruned grid for atomic number  53.
 Defaulting to unpruned grid for atomic number  53.
 Defaulting to unpruned grid for atomic number  53.
 Defaulting to unpruned grid for atomic number  53.
 Defaulting to unpruned grid for atomic number  53.
 Defaulting to unpruned grid for atomic number  53.
 Defaulting to unpruned grid for atomic number  53.
 Defaulting to unpruned grid for atomic number  53.
 Defaulting to unpruned grid for atomic number  53.
 Defaulting to unpruned grid for atomic number  53.
 Defaulting to unpruned grid for atomic number  53.
 Defaulting to unpruned grid for atomic number  53.
 Defaulting to unpruned grid for atomic number  53.
 Defaulting to unpruned grid for atomic number  53.
 Defaulting to unpruned grid for atomic number  53.
 Defaulting to unpruned grid for atomic number  53.
 Defaulting to unpruned grid for atomic number  53.
 Defaulting to unpruned grid for atomic number  53.
 Defaulting to unpruned grid for atomic number  53.
 Defaulting to unpruned grid for atomic number  53.
 Defaulting to unpruned grid for atomic number  53.
 Defaulting to unpruned grid for atomic number  53.
 Defaulting to unpruned grid for atomic number  53.
 Defaulting to unpruned grid for atomic number  53.
 Defaulting to unpruned grid for atomic number  53.
 Defaulting to unpruned grid for atomic number  53.
 Defaulting to unpruned grid for atomic number  53.
 Defaulting to unpruned grid for atomic number  53.
 Inv3:  Mode=1 IEnd=    37509888.
 Iteration    1 A*A^-1 deviation from unit magnitude is 4.33D-15 for   1422.
 Iteration    1 A*A^-1 deviation from orthogonality  is 2.55D-15 for   2402    712.
 Iteration    1 A^-1*A deviation from unit magnitude is 4.33D-15 for   1422.
 Iteration    1 A^-1*A deviation from orthogonality  is 3.40D-14 for   2807   2790.
 E= -1430.81812275192    
 DIIS: error= 1.48D-02 at cycle   1 NSaved=   1.
 NSaved= 1 IEnMin= 1 EnMin= -1430.81812275192     IErMin= 1 ErrMin= 1.48D-02
 ErrMax= 1.48D-02  0.00D+00 EMaxC= 1.00D-01 BMatC= 4.81D-01 BMatP= 4.81D-01
 IDIUse=3 WtCom= 8.52D-01 WtEn= 1.48D-01
 Coeff-Com:  0.100D+01
 Coeff-En:   0.100D+01
 Coeff:      0.100D+01
 Gap=     0.334 Goal=   None    Shift=    0.000
 GapD=    0.334 DampG=1.000 DampE=0.500 DampFc=0.5000 IDamp=-1.
 Damping current iteration by 5.00D-01
 RMSDP=2.94D-03 MaxDP=1.39D-01              OVMax= 1.45D-01

 Cycle   2  Pass 1  IDiag  1:
 RMSU=  1.44D-03    CP:  9.83D-01
 E= -1431.07137846626     Delta-E=       -0.253255714337 Rises=F Damp=T
 DIIS: error= 4.24D-03 at cycle   2 NSaved=   2.
 NSaved= 2 IEnMin= 2 EnMin= -1431.07137846626     IErMin= 2 ErrMin= 4.24D-03
 ErrMax= 4.24D-03  0.00D+00 EMaxC= 1.00D-01 BMatC= 4.08D-02 BMatP= 4.81D-01
 IDIUse=3 WtCom= 9.58D-01 WtEn= 4.24D-02
 Coeff-Com: -0.174D+00 0.117D+01
 Coeff-En:   0.000D+00 0.100D+01
 Coeff:     -0.167D+00 0.117D+01
 Gap=     0.252 Goal=   None    Shift=    0.000
 RMSDP=9.16D-04 MaxDP=5.67D-02 DE=-2.53D-01 OVMax= 8.72D-02

 Cycle   3  Pass 1  IDiag  1:
 RMSU=  8.18D-04    CP:  9.70D-01  1.24D+00
 E= -1431.29218327642     Delta-E=       -0.220804810154 Rises=F Damp=F
 DIIS: error= 2.80D-03 at cycle   3 NSaved=   3.
 NSaved= 3 IEnMin= 3 EnMin= -1431.29218327642     IErMin= 3 ErrMin= 2.80D-03
 ErrMax= 2.80D-03  0.00D+00 EMaxC= 1.00D-01 BMatC= 9.04D-03 BMatP= 4.08D-02
 IDIUse=3 WtCom= 9.72D-01 WtEn= 2.80D-02
 Coeff-Com: -0.106D+00 0.386D+00 0.720D+00
 Coeff-En:   0.000D+00 0.000D+00 0.100D+01
 Coeff:     -0.103D+00 0.375D+00 0.728D+00
 Gap=     0.219 Goal=   None    Shift=    0.000
 RMSDP=2.89D-04 MaxDP=1.71D-02 DE=-2.21D-01 OVMax= 2.95D-02

 Cycle   4  Pass 1  IDiag  1:
 RMSU=  2.39D-04    CP:  9.70D-01  1.29D+00  8.23D-01
 E= -1431.29886221683     Delta-E=       -0.006678940412 Rises=F Damp=F
 DIIS: error= 1.17D-03 at cycle   4 NSaved=   4.
 NSaved= 4 IEnMin= 4 EnMin= -1431.29886221683     IErMin= 4 ErrMin= 1.17D-03
 ErrMax= 1.17D-03  0.00D+00 EMaxC= 1.00D-01 BMatC= 1.98D-03 BMatP= 9.04D-03
 IDIUse=3 WtCom= 9.88D-01 WtEn= 1.17D-02
 Coeff-Com: -0.331D-01 0.774D-01 0.355D+00 0.601D+00
 Coeff-En:   0.000D+00 0.000D+00 0.134D+00 0.866D+00
 Coeff:     -0.327D-01 0.765D-01 0.352D+00 0.604D+00
 Gap=     0.219 Goal=   None    Shift=    0.000
 RMSDP=1.12D-04 MaxDP=6.27D-03 DE=-6.68D-03 OVMax= 1.58D-02

 Cycle   5  Pass 1  IDiag  1:
 RMSU=  6.47D-05    CP:  9.70D-01  1.30D+00  8.74D-01  6.63D-01
 E= -1431.30072144933     Delta-E=       -0.001859232500 Rises=F Damp=F
 DIIS: error= 2.48D-04 at cycle   5 NSaved=   5.
 NSaved= 5 IEnMin= 5 EnMin= -1431.30072144933     IErMin= 5 ErrMin= 2.48D-04
 ErrMax= 2.48D-04  0.00D+00 EMaxC= 1.00D-01 BMatC= 8.83D-05 BMatP= 1.98D-03
 IDIUse=3 WtCom= 9.98D-01 WtEn= 2.48D-03
 Coeff-Com: -0.756D-02 0.101D-01 0.104D+00 0.249D+00 0.645D+00
 Coeff-En:   0.000D+00 0.000D+00 0.000D+00 0.000D+00 0.100D+01
 Coeff:     -0.754D-02 0.101D-01 0.104D+00 0.248D+00 0.646D+00
 Gap=     0.220 Goal=   None    Shift=    0.000
 RMSDP=2.82D-05 MaxDP=1.80D-03 DE=-1.86D-03 OVMax= 3.27D-03

 Cycle   6  Pass 1  IDiag  1:
 RMSU=  2.11D-05    CP:  9.70D-01  1.30D+00  8.83D-01  7.03D-01  7.84D-01
 E= -1431.30079736497     Delta-E=       -0.000075915641 Rises=F Damp=F
 DIIS: error= 6.85D-05 at cycle   6 NSaved=   6.
 NSaved= 6 IEnMin= 6 EnMin= -1431.30079736497     IErMin= 6 ErrMin= 6.85D-05
 ErrMax= 6.85D-05  0.00D+00 EMaxC= 1.00D-01 BMatC= 1.10D-05 BMatP= 8.83D-05
 IDIUse=1 WtCom= 1.00D+00 WtEn= 0.00D+00
 Coeff-Com: -0.487D-03-0.228D-02 0.170D-01 0.598D-01 0.296D+00 0.630D+00
 Coeff:     -0.487D-03-0.228D-02 0.170D-01 0.598D-01 0.296D+00 0.630D+00
 Gap=     0.220 Goal=   None    Shift=    0.000
 RMSDP=9.53D-06 MaxDP=7.04D-04 DE=-7.59D-05 OVMax= 1.46D-03

 Cycle   7  Pass 1  IDiag  1:
 RMSU=  7.54D-06    CP:  9.70D-01  1.30D+00  8.86D-01  7.08D-01  8.46D-01
                    CP:  8.34D-01
 E= -1431.30080766173     Delta-E=       -0.000010296760 Rises=F Damp=F
 DIIS: error= 2.76D-05 at cycle   7 NSaved=   7.
 NSaved= 7 IEnMin= 7 EnMin= -1431.30080766173     IErMin= 7 ErrMin= 2.76D-05
 ErrMax= 2.76D-05  0.00D+00 EMaxC= 1.00D-01 BMatC= 1.17D-06 BMatP= 1.10D-05
 IDIUse=1 WtCom= 1.00D+00 WtEn= 0.00D+00
 Coeff-Com:  0.889D-03-0.238D-02-0.692D-02-0.102D-01 0.319D-01 0.258D+00
 Coeff-Com:  0.729D+00
 Coeff:      0.889D-03-0.238D-02-0.692D-02-0.102D-01 0.319D-01 0.258D+00
 Coeff:      0.729D+00
 Gap=     0.220 Goal=   None    Shift=    0.000
 RMSDP=3.77D-06 MaxDP=2.68D-04 DE=-1.03D-05 OVMax= 3.65D-04

 Cycle   8  Pass 1  IDiag  1:
 RMSU=  2.49D-06    CP:  9.70D-01  1.30D+00  8.87D-01  7.11D-01  8.60D-01
                    CP:  9.32D-01  8.77D-01
 E= -1431.30080884674     Delta-E=       -0.000001185015 Rises=F Damp=F
 DIIS: error= 9.67D-06 at cycle   8 NSaved=   8.
 NSaved= 8 IEnMin= 8 EnMin= -1431.30080884674     IErMin= 8 ErrMin= 9.67D-06
 ErrMax= 9.67D-06  0.00D+00 EMaxC= 1.00D-01 BMatC= 2.08D-07 BMatP= 1.17D-06
 IDIUse=1 WtCom= 1.00D+00 WtEn= 0.00D+00
 Coeff-Com:  0.523D-03-0.936D-03-0.575D-02-0.136D-01-0.261D-01 0.443D-01
 Coeff-Com:  0.355D+00 0.647D+00
 Coeff:      0.523D-03-0.936D-03-0.575D-02-0.136D-01-0.261D-01 0.443D-01
 Coeff:      0.355D+00 0.647D+00
 Gap=     0.220 Goal=   None    Shift=    0.000
 RMSDP=1.44D-06 MaxDP=8.50D-05 DE=-1.19D-06 OVMax= 2.15D-04

 Cycle   9  Pass 1  IDiag  1:
 RMSU=  9.44D-07    CP:  9.70D-01  1.30D+00  8.87D-01  7.11D-01  8.67D-01
                    CP:  9.49D-01  9.72D-01  8.10D-01
 E= -1431.30080907363     Delta-E=       -0.000000226893 Rises=F Damp=F
 DIIS: error= 2.79D-06 at cycle   9 NSaved=   9.
 NSaved= 9 IEnMin= 9 EnMin= -1431.30080907363     IErMin= 9 ErrMin= 2.79D-06
 ErrMax= 2.79D-06  0.00D+00 EMaxC= 1.00D-01 BMatC= 1.18D-08 BMatP= 2.08D-07
 IDIUse=1 WtCom= 1.00D+00 WtEn= 0.00D+00
 Coeff-Com:  0.979D-04-0.113D-03-0.130D-02-0.356D-02-0.110D-01-0.343D-02
 Coeff-Com:  0.416D-01 0.215D+00 0.762D+00
 Coeff:      0.979D-04-0.113D-03-0.130D-02-0.356D-02-0.110D-01-0.343D-02
 Coeff:      0.416D-01 0.215D+00 0.762D+00
 Gap=     0.220 Goal=   None    Shift=    0.000
 RMSDP=4.16D-07 MaxDP=2.08D-05 DE=-2.27D-07 OVMax= 4.54D-05

 Cycle  10  Pass 1  IDiag  1:
 RMSU=  2.95D-07    CP:  9.70D-01  1.30D+00  8.87D-01  7.11D-01  8.68D-01
                    CP:  9.57D-01  9.79D-01  8.93D-01  1.00D+00
 E= -1431.30080908946     Delta-E=       -0.000000015829 Rises=F Damp=F
 DIIS: error= 8.45D-07 at cycle  10 NSaved=  10.
 NSaved=10 IEnMin=10 EnMin= -1431.30080908946     IErMin=10 ErrMin= 8.45D-07
 ErrMax= 8.45D-07  0.00D+00 EMaxC= 1.00D-01 BMatC= 1.75D-09 BMatP= 1.18D-08
 IDIUse=1 WtCom= 1.00D+00 WtEn= 0.00D+00
 Coeff-Com: -0.413D-04 0.967D-04 0.386D-03 0.722D-03-0.276D-03-0.603D-02
 Coeff-Com: -0.386D-01-0.135D-01 0.288D+00 0.769D+00
 Coeff:     -0.413D-04 0.967D-04 0.386D-03 0.722D-03-0.276D-03-0.603D-02
 Coeff:     -0.386D-01-0.135D-01 0.288D+00 0.769D+00
 Gap=     0.220 Goal=   None    Shift=    0.000
 RMSDP=1.57D-07 MaxDP=7.15D-06 DE=-1.58D-08 OVMax= 2.13D-05

 Cycle  11  Pass 1  IDiag  1:
 RMSU=  1.04D-07    CP:  9.70D-01  1.30D+00  8.87D-01  7.11D-01  8.68D-01
                    CP:  9.59D-01  9.84D-01  9.15D-01  1.09D+00  9.37D-01
 E= -1431.30080909195     Delta-E=       -0.000000002489 Rises=F Damp=F
 DIIS: error= 2.98D-07 at cycle  11 NSaved=  11.
 NSaved=11 IEnMin=11 EnMin= -1431.30080909195     IErMin=11 ErrMin= 2.98D-07
 ErrMax= 2.98D-07  0.00D+00 EMaxC= 1.00D-01 BMatC= 1.38D-10 BMatP= 1.75D-09
 IDIUse=1 WtCom= 1.00D+00 WtEn= 0.00D+00
 Coeff-Com: -0.228D-04 0.410D-04 0.265D-03 0.639D-03 0.988D-03-0.125D-02
 Coeff-Com: -0.176D-01-0.276D-01 0.111D-01 0.233D+00 0.801D+00
 Coeff:     -0.228D-04 0.410D-04 0.265D-03 0.639D-03 0.988D-03-0.125D-02
 Coeff:     -0.176D-01-0.276D-01 0.111D-01 0.233D+00 0.801D+00
 Gap=     0.220 Goal=   None    Shift=    0.000
 RMSDP=5.52D-08 MaxDP=2.00D-06 DE=-2.49D-09 OVMax= 8.92D-06

 Cycle  12  Pass 1  IDiag  1:
 RMSU=  3.42D-08    CP:  9.70D-01  1.30D+00  8.87D-01  7.11D-01  8.68D-01
                    CP:  9.59D-01  9.85D-01  9.21D-01  1.12D+00  1.03D+00
                    CP:  1.06D+00
 E= -1431.30080909221     Delta-E=       -0.000000000258 Rises=F Damp=F
 DIIS: error= 9.51D-08 at cycle  12 NSaved=  12.
 NSaved=12 IEnMin=12 EnMin= -1431.30080909221     IErMin=12 ErrMin= 9.51D-08
 ErrMax= 9.51D-08  0.00D+00 EMaxC= 1.00D-01 BMatC= 2.85D-11 BMatP= 1.38D-10
 IDIUse=1 WtCom= 1.00D+00 WtEn= 0.00D+00
 Coeff-Com: -0.438D-05 0.577D-05 0.589D-04 0.179D-03 0.342D-03 0.242D-03
 Coeff-Com: -0.304D-02-0.894D-02-0.245D-01 0.596D-02 0.337D+00 0.693D+00
 Coeff:     -0.438D-05 0.577D-05 0.589D-04 0.179D-03 0.342D-03 0.242D-03
 Coeff:     -0.304D-02-0.894D-02-0.245D-01 0.596D-02 0.337D+00 0.693D+00
 Gap=     0.220 Goal=   None    Shift=    0.000
 RMSDP=1.93D-08 MaxDP=6.71D-07 DE=-2.58D-10 OVMax= 2.07D-06

 Cycle  13  Pass 1  IDiag  1:
 RMSU=  1.37D-08    CP:  9.70D-01  1.30D+00  8.87D-01  7.11D-01  8.68D-01
                    CP:  9.59D-01  9.85D-01  9.21D-01  1.13D+00  1.05D+00
                    CP:  1.15D+00  9.25D-01
[...]
 ,-0.08403619,0.02530968,0.09634348,0.00027363,0.00045158,-0.00040540,0
 .00092384,-0.00011475,-0.00047573,0.00013680,-0.00020900,-0.00014874,0
 .00021535,-0.00014117,-0.00125886,-0.00208004,0.00099624,0.00826016,0.
 09057390,0.00013628,-0.00005483,-0.00011310,-0.00005216,0.00010257,0.0
 0013699,0.00012402,-0.00016131,-0.00013868,-0.00042184,0.00022784,-0.0
 0025043,0.00099435,-0.00182582,0.00032961,-0.00012068,0.00058518,0.000
 60122,-0.00001603,-0.00002924,-0.00000088,-0.00000346,0.00000943,-0.00
 001442,-0.00002434,-0.00001003,0.00001471,0.00001006,0.00000285,-0.000
 00558,0.00000387,0.00000025,0.00000143,-0.00000100,0.00000149,0.000004
 44,0.00000087,0.00000208,0.00000274,0.00000045,0.00000067,-0.00000057,
 -0.00000001,0.00000093,0.00000115,0.00000310,-0.00000210,-0.00000920,0
 .00000271,-0.00000345,0.00004127,-0.00001885,0.00000678,-0.00000107,-0
 .00002396,-0.00000896,-0.00000028,0.00000577,-0.00000401,-0.00000606,-
 0.00000218,0.00000066,-0.00000063,-0.00001878,-0.00001901,-0.00003618,
 -0.00000935,0.00000500,0.00001036,0.00005568,-0.00000628,-0.00000762,-
 0.00000045,0.00000375,-0.00000361,0.00000712,0.00002905,-0.00001045,-0
 .00000445,0.00000070,-0.00000124,0.00000504,0.00000454,0.00000958,0.00
 000025,0.00000144,0.00000134,-0.00000861,0.00000241,-0.00000305,-0.000
 00362,0.00000262,-0.00000160,-0.00000052,-0.00000134,-0.00000400,-0.00
 046305,-0.00017307,-0.00046175,-0.00576610,0.00594490,0.01850974,-0.00
 046644,0.00083747,0.00050498,0.00006006,0.00005673,0.00003786,0.000065
 18,0.00003281,0.00002073,0.02438794,-0.06909979,-0.06404415,0.00026547
 ,0.00064320,-0.00063212,0.00091663,0.00079804,-0.00006525,-0.00008366,
 0.00022466,0.00047330,-0.00001112,0.00030270,-0.00018545,0.00970577,-0
 .00469303,-0.02475628,-0.02376599,0.06513833,-0.00012295,0.00013701,0.
 00011136,0.00003666,-0.00004381,-0.00005490,-0.00010776,0.00012857,0.0
 0008145,0.00031258,-0.00019630,0.00015806,-0.00114819,0.00124234,0.000
 27745,0.00021003,-0.00035559,-0.00046303,-0.00001302,0.00002260,-0.000
 00905,0.00000746,-0.00000947,0.00000022,0.00000627,0.00000795,0.000006
 71,0.00000583,-0.00000243,-0.00000585,0.00000592,0.00000173,-0.0000036
 4,-0.00000475,-0.00000431,-0.00000225,-0.00000174,0.00000062,-0.000001
 16,-0.00000072,0.00000002,-0.00000201,-0.00000014,0.00000021,-0.000002
 22,-0.00002916,-0.00001077,0.00000883,-0.00001736,-0.00000058,0.000005
 85,0.00000252,-0.00001954,0.00001676,-0.00001108,-0.00000768,-0.000000
 03,0.00001277,-0.00002634,0.00000517,0.00000127,0.00000875,0.00000737,
 -0.00001369,-0.00000328,-0.00002221,0.00000248,0.00000773,-0.00000204,
 0.00001096,-0.00001438,-0.00002713,0.00000421,0.00000987,0.00000164,0.
 00000500,-0.00000147,0.00000348,-0.00000534,0.00000315,0.00000006,0.00
 001570,0.00000509,-0.00000917,0.00000722,-0.00001634,-0.00001369,0.000
 01057,-0.00000317,0.00000657,0.00000881,-0.00000147,0.00000870,0.00000
 372,0.00000551,0.00000680,-0.00008601,-0.00052617,-0.00001134,0.002613
 67,-0.00279717,-0.00557747,-0.00405148,0.00128017,0.00193417,0.0001528
 5,0.00009935,0.00000948,-0.00000399,0.00004907,-0.00000543,0.08530283,
 -0.05968594,-0.26978322,0.00035537,0.00031597,0.00003116,-0.00021553,-
 0.00007570,0.00017183,0.00017889,-0.00015323,-0.00008624,0.00027470,-0
 .00009377,-0.00103685,0.00008776,0.00028816,0.00276633,-0.08545807,0.0
 6565690,0.29787639,-0.00357484,0.00233362,-0.00797282,0.00220713,0.002
 09922,0.00809452,0.00587210,-0.00656988,-0.01070589,-0.03597861,0.0364
 7259,-0.00124616,-0.21488636,0.13757787,0.01097693,0.00458547,0.013889
 04,0.02255094,0.00000221,-0.00151164,0.00107972,0.00032748,-0.00015593
 ,-0.00063387,-0.00039585,-0.00019547,0.00028131,0.00012406,0.00007147,
 -0.00001276,0.00001273,0.00001242,0.00008608,0.00003559,0.00005649,0.0
 0015265,0.00002717,0.00006382,0.00005924,0.00000297,0.00001920,0.00001
 594,-0.00000906,0.00002994,0.00003857,0.00007695,-0.00005394,-0.000377
 72,-0.00005255,-0.00000860,0.00013476,-0.00012479,0.00000214,-0.000005
 46,-0.00006379,0.00031665,-0.00007499,0.00014651,-0.00013043,-0.000076
 86,-0.00001080,0.00003120,0.00004507,-0.00013229,-0.00009461,0.0000935
 4,-0.00001552,-0.00022157,0.00008135,0.00023452,-0.00016448,-0.0001334
 6,0.00007817,0.00008038,0.00002760,-0.00002540,0.00004188,-0.00000344,
 0.00004596,0.00006943,-0.00000737,0.00005659,0.00010031,0.00047138,-0.
 00082888,0.00055699,0.00080090,-0.00024987,0.00007647,-0.00016728,-0.0
 0033073,0.00012739,-0.00029015,-0.00001733,-0.00011341,-0.00014212,-0.
 17267012,0.00363707,-0.04836919,-0.10746095,0.01367271,0.01566062,-0.0
 4412583,-0.00104152,-0.02981133,0.00797494,-0.00029111,0.00102850,-0.0
 2134833,0.00430139,-0.01488993,-0.00777896,0.00983458,0.03884931,0.012
 36067,-0.00507480,-0.02552570,-0.00679179,0.00625615,0.01904868,0.0030
 4866,0.00141183,0.00012485,-0.00631182,-0.00514765,0.00412647,0.001520
 55,0.00056287,-0.00155468,-0.00581294,-0.00472206,0.00223096,0.5833983
 7,-0.00016922,0.00908996,0.00419453,0.00151050,-0.00473316,-0.00584296
 ,-0.00707684,0.00942170,0.00285835,0.03097621,-0.01067978,0.01145704,0
 .10009016,-0.13676509,-0.03008834,0.02185121,-0.03572828,-0.04463242,-
 0.00013557,-0.00068622,-0.00027519,-0.00003988,-0.00003451,0.00023480,
 0.00048361,0.00033549,-0.00007513,-0.00006266,-0.00009911,-0.00007650,
 0.00003446,0.00005581,-0.00012961,-0.00011760,-0.00008024,-0.00017418,
 -0.00003100,-0.00006650,-0.00006241,-0.00000079,-0.00003048,-0.0000265
 0,0.00002233,-0.00005872,-0.00005583,-0.00042506,-0.00011575,0.0004723
 7,-0.00013598,-0.00013715,-0.00012210,0.00027473,-0.00005610,0.0000522
 3,0.00002759,-0.00048002,0.00000231,-0.00015456,0.00005712,0.00013887,
 -0.00000543,-0.00000299,-0.00003517,0.00014152,0.00007315,-0.00018188,
 0.00004592,0.00030961,-0.00007783,-0.00024223,0.00017112,0.00005245,-0
 .00005784,-0.00002979,-0.00000204,0.00003689,-0.00001359,0.00000712,-0
 .00005543,-0.00004095,0.00000818,0.00008166,0.00009038,-0.00051898,-0.
 00020144,0.00006196,0.00005434,0.00016359,0.00002014,0.00002607,0.0001
 3070,-0.00006475,0.00007004,0.00007744,0.00009291,0.00025507,0.0250584
 9,-0.07110592,-0.01287496,0.03667251,-0.06519656,-0.03401840,-0.020729
 23,0.00180776,-0.01063444,-0.00699299,-0.00141743,-0.00365980,0.027705
 62,0.00227998,0.01949677,-0.00757416,0.00478612,0.01396988,-0.00197567
 ,-0.00141348,0.00188731,0.01046273,-0.00346402,-0.03314030,0.00111884,
 0.00273278,-0.00184097,-0.00287989,-0.00072407,0.00200928,0.00141249,0
 .00313949,0.00023430,-0.00249775,-0.00033876,0.00042385,-0.21248351,0.
 30004802,-0.00876140,0.00120322,-0.00216328,0.00400099,-0.00003017,0.0
 0391523,-0.00279556,-0.00456843,-0.00744600,-0.01664294,0.01737553,0.0
 1445013,0.00881844,-0.04038014,-0.12157155,0.03748831,-0.04744818,-0.0
 2439447,0.00080239,-0.00060950,-0.00084088,0.00064879,-0.00073352,0.00
 002425,0.00017109,0.00015198,-0.00004321,-0.00000379,-0.00000217,-0.00
 005182,0.00000998,0.00008135,-0.00001932,-0.00004694,-0.00006246,-0.00
 003668,-0.00001587,-0.00000161,-0.00002619,-0.00000326,-0.00000574,-0.
 00000561,-0.00000450,-0.00000235,-0.00002551,-0.00040740,-0.00021745,-
 0.00003138,-0.00000389,-0.00004365,-0.00001775,0.00005682,0.00000267,0
 .00002205,-0.00010248,-0.00009450,-0.00002223,-0.00002317,-0.00005556,
 0.00007453,0.00002341,0.00003162,0.00002888,0.00005455,0.00002441,-0.0
 0002516,0.00006323,0.00005361,-0.00002343,-0.00008349,-0.00001214,-0.0
 0002207,-0.00000406,0.00000673,-0.00000374,0.00000984,-0.00003566,0.00
 001955,-0.00002420,-0.00001657,0.00000290,0.00015684,0.00008069,0.0000
 4402,-0.00066291,0.00097272,0.00058906,-0.00019373,0.00006147,-0.00011
 970,-0.00024228,0.00005064,-0.00014039,0.00009181,-0.00001121,0.000072
 28,-0.06808873,-0.01662712,-0.14061738,0.03471848,-0.01577610,-0.21316
 607,-0.00420706,-0.00502211,0.00440570,-0.02995567,0.00114595,-0.01948
 516,-0.00217376,0.00038340,-0.00237841,0.01622489,-0.00256422,-0.03522
 848,0.00713902,-0.00531003,-0.02245720,0.00366063,-0.00562683,-0.01090
 357,0.00026848,-0.00009881,0.00014110,0.00095564,0.00086701,0.00084302
 ,-0.00208972,-0.00097856,0.00157153,0.00513480,0.00298584,-0.00016079,
 0.01852094,0.12218008,0.57290083,-0.00013791,-0.00019596,-0.00026325,0
 .00015771,0.00006798,0.00033279,0.00029530,-0.00048697,-0.00011466,-0.
 00099963,0.00007442,-0.00011782,0.00067616,0.00007028,-0.00007388,-0.0
 0025396,0.00059682,0.00055251,0.00038761,0.00011774,0.00016353,0.,0.00
 001453,-0.00005075,-0.00007484,-0.00003097,0.00005121,0.00002460,-0.00
 000002,0.00000472,0.00000083,0.00000430,0.00002119,0.00000594,0.000011
 34,0.00002692,0.00000368,0.00001539,0.00001207,-0.00000286,0.00000481,
 0.00000372,-0.00000024,0.00000370,0.00000730,0.00002369,-0.00000824,-0
 .00004177,-0.00003973,0.00001736,-0.00005139,0.00002843,-0.00008468,-0
 .00001755,0.00006614,0.00003806,0.00004770,0.00002348,0.00004318,-0.00
 004080,-0.00001398,0.00002639,0.00004044,0.00005233,0.00009658,0.00000
 477,0.00003748,-0.00004978,-0.00002532,-0.00016184,0.00009738,0.000085
 66,0.00006932,0.00007156,0.00005671,-0.00001457,-0.00008015,0.00001912
 ,0.00000949,0.00010219,-0.00003052,0.00002805,0.00003349,0.00005343,-0
 .00004691,0.00003282,0.00003065,-0.00000510,0.00000175,-0.00003328,-0.
 00003629,-0.00000241,-0.00001235,0.00002931,-0.00000059,0.00000113,-0.
 00771222,0.00529471,0.03426485,-0.04133503,-0.00335707,-0.03035958,-0.
 10705316,0.01078704,0.01851539,-0.00332471,-0.00428884,0.00135068,0.00
 100282,0.00078117,-0.00098640,-0.18033432,0.01413683,-0.04001476,-0.00
 490331,-0.00508580,0.00358072,0.00236085,0.00070405,0.00030353,-0.0020
 7133,0.00419027,0.01503307,0.01227241,-0.00636220,-0.02875122,-0.02395
 570,0.00726437,-0.01834621,0.00642375,-0.00071337,-0.00060650,0.008050
 80,0.00450979,-0.00298830,0.34051185,-0.00021968,0.00010010,-0.0000756
 2,0.00004124,0.00004868,0.00021139,0.00000853,-0.00010612,-0.00005520,
 -0.00028057,0.00033319,-0.00038075,0.00029852,-0.00138779,0.00001006,0
 .00037395,0.00089436,-0.00003450,0.00012488,0.00000256,0.00016804,0.00
 003848,0.00002383,-0.00006765,-0.00015843,-0.00001855,0.00014994,0.000
 08458,0.00001307,-0.00007991,0.00005207,0.00002721,-0.00001203,-0.0000
 3989,0.00000292,0.00000952,0.00000552,0.00000282,0.00002138,0.00000432
 ,-0.00000290,-0.00000973,0.00000574,-0.00000364,0.00000107,-0.00008401
 ,-0.00007270,-0.00001296,-0.00015553,-0.00007094,0.00007023,-0.0000078
 1,-0.00027204,0.00008647,-0.00009322,0.00000271,-0.00012323,0.00025680
 ,-0.00012739,0.00000294,-0.00000054,0.00002438,-0.00001134,-0.00006669
 ,0.00008172,-0.00010923,0.00000197,0.00001471,0.00002752,-0.00004610,0
 .00019792,-0.00004502,-0.00001214,0.00001970,0.00000973,-0.00000046,0.
 00005882,-0.00000042,0.00002035,0.00007556,0.00002767,0.00009384,0.000
 07242,0.00000570,-0.00000326,0.00000255,0.00000368,-0.00002439,0.00001
 653,-0.00000150,-0.00000152,0.00000229,-0.00000765,-0.00000002,-0.0000
 1282,0.00001359,-0.00681426,0.00993343,0.02340469,-0.02366623,0.005473
 06,-0.01775036,0.02012402,-0.07612654,-0.02783890,-0.00422461,-0.00258
 333,0.00114652,0.00207000,0.00345761,-0.00052203,0.01116500,-0.0697288
 2,-0.00415625,-0.00481453,-0.00245029,0.00260931,0.00210832,0.00306491
 ,-0.00136966,0.01028334,-0.00246572,-0.03647723,-0.00061521,0.00111310
 ,0.00046064,0.02759692,0.00421328,0.02038916,-0.00795511,0.00143078,-0
 .00560179,0.00315635,0.00102109,-0.00102296,-0.02861212,0.12367470,-0.
 00076140,0.00090450,0.00023968,0.00037933,0.00002713,0.00059673,0.0002
 3330,-0.00033385,-0.00019877,-0.00040752,-0.00028472,-0.00012012,0.000
 11314,-0.00028877,0.00033868,0.00169876,-0.00085186,-0.00031969,0.0002
 0879,0.00015799,0.00018886,0.00005343,-0.00004915,-0.00011405,-0.00008
 347,0.00002444,0.00012906,0.00008830,-0.00001219,-0.00002920,0.0000448
 6,0.00000644,0.00000063,-0.00002160,-0.00001587,0.00002486,-0.00000609
 ,0.00002423,0.00000724,-0.00000654,0.00000851,-0.00001160,-0.00000475,
 0.00001186,-0.00000559,-0.00017842,-0.00007861,-0.00000099,-0.00024815
 ,0.00002977,0.00003939,-0.00002260,-0.00029366,0.00020265,-0.00010851,
 0.00000769,0.00000358,0.00020364,-0.00040680,-0.00001563,0.00001700,0.
 00008929,0.00008823,-0.00014098,0.00001686,-0.00016838,0.00004365,-0.0
 0001142,-0.00002554,0.00005211,-0.00013764,-0.00034557,0.00003975,0.00
 008605,-0.00000130,0.00004617,-0.00011246,0.00005746,-0.00007125,-0.00
 004917,0.00000553,0.00013788,0.00006197,0.00002528,0.00001589,-0.00005
 470,-0.00001355,0.00004733,-0.00001524,0.00000948,0.00000899,-0.000000
 88,0.00003907,0.00004479,0.00003078,0.00002574,0.01353223,-0.00343893,
 -0.04013129,-0.00583541,-0.00355514,-0.00014664,0.05367019,-0.03406760
 ,-0.19480955,0.00499456,0.00469884,0.00032814,-0.00191314,-0.00021669,
 0.00210195,-0.07521893,0.00331007,-0.13189664,-0.00011862,0.00032782,0
 .00158096,0.00078223,-0.00081243,0.00043389,0.00865103,-0.01044614,-0.
 02046997,0.00702233,-0.00674212,-0.03142558,-0.01583419,0.00542091,-0.
 00758535,-0.03644876,0.00139749,-0.02620773,-0.00311290,-0.00121154,0.
 00236487,0.04834408,0.04692460,0.44519286,-0.01303834,0.01763980,0.009
 24894,-0.06028942,0.04987107,0.01062556,-0.00515468,0.00807232,0.00322
 949,0.00230492,0.00053231,-0.00049086,0.00087219,-0.00152666,-0.001328
 31,-0.00112331,0.00215349,-0.00348164,-0.00012344,0.00023321,-0.000085
 43,-0.00335166,0.00152726,-0.00060437,0.00033906,0.00034884,0.00009944
 ,0.00014132,-0.00012379,-0.00049724,0.00055862,0.00054768,0.00083675,-
 0.00054664,-0.00050856,0.00015775,-0.00001822,0.00003547,-0.00004210,-
 0.00001946,0.00002344,-0.00000486,-0.00000058,0.00001257,-0.00002016,-
 0.00234570,0.00132119,-0.00282055,0.00009185,-0.00007102,-0.00004630,0
 .00003903,-0.00006472,-0.00000987,-0.00025711,0.00036393,-0.00022090,0
 .00000440,0.00000275,0.00002142,0.00000947,0.00000599,0.00000562,0.000
 10957,-0.00004797,0.00007733,0.00056407,-0.00007929,0.00009506,0.00000
 891,-0.00001768,-0.00005707,0.00000119,0.00000919,0.00000485,-0.000002
 30,0.00002439,-0.00000682,0.00001387,0.00000069,0.00000420,0.00007330,
 -0.00028484,0.00041973,-0.00086294,-0.00172702,-0.00178604,0.00035597,
 -0.00045311,0.00049716,0.00077329,-0.00036532,-0.00040409,0.00018033,-
 0.00010443,-0.00025192,0.00017729,-0.00004446,0.00025655,-0.00008122,-
 0.00023182,-0.00039519,0.00003078,0.00007053,-0.00015598,0.00006358,-0
 .00006690,0.00008370,-0.00010099,0.00004649,0.00005691,0.00005344,0.00
 008742,0.00009626,0.00005243,-0.00002742,0.00000610,-0.00006901,0.0000
 3644,0.00004812,0.00002626,0.00001757,-0.00000465,-0.00006386,-0.00001
 936,0.00001726,0.00000530,-0.00000542,-0.00000692,-0.00005556,-0.00002
 857,0.00003046,-0.00119216,0.00115578,0.00050575,-0.00006439,-0.000018
 39,0.00006946,0.08191055,0.00950998,-0.01300605,-0.00580848,0.04998296
 ,-0.07258542,-0.01957018,0.01347515,-0.01502628,-0.00619725,-0.0005976
 5,0.00137544,-0.00259511,-0.00141395,0.00163962,0.00092917,0.00283351,
 0.00230232,0.00058839,0.00079162,-0.00020803,-0.00002795,-0.00070090,-
 0.00097552,0.00005627,0.00011457,0.00010074,0.00007082,-0.00002331,-0.
 00006460,0.00007312,-0.00041110,-0.00001371,-0.00011301,0.00015307,0.0
 0001343,0.00000856,0.00000773,-0.00001181,0.00001779,0.00000503,-0.000
 02055,0.00000302,0.00000668,0.00002680,0.00004776,0.00198223,0.0001650
 5,0.00200174,-0.00007371,-0.00000350,-0.00001177,-0.00005675,0.0000183
 3,0.00000645,0.00007204,0.00001506,0.00005260,-0.00000247,0.00001649,-
 0.00003955,-0.00000747,-0.00000937,-0.00001018,-0.00011734,0.00002763,
 -0.00000794,-0.00002927,-0.00001249,-0.00000523,0.00001478,-0.00001617
 ,0.00005113,-0.00000330,-0.00000342,-0.00000195,0.00001274,-0.00001093
 ,-0.00000695,-0.00000980,-0.00000352,-0.00000264,0.00070487,-0.0019250
 0,0.00101201,0.00132430,-0.00214174,0.00002749,-0.00059291,0.00004963,
 -0.00013591,-0.00027258,0.00006128,-0.00086152,0.00045933,-0.00009577,
 0.00009695,-0.00028374,0.00011113,-0.00026612,0.00002691,0.00028260,0.
 00039939,-0.00006850,-0.00007164,0.00015040,0.00001249,-0.00000775,-0.
 00009363,0.00011516,-0.00004741,0.00002431,-0.00010482,-0.00013660,-0.
 00007118,0.00002355,-0.00000464,0.00003126,0.00006303,-0.00005789,-0.0
 0010125,-0.00001327,-0.00003020,-0.00000560,0.00007853,0.00002424,-0.0
 0001473,-0.00000073,0.00000956,0.00000515,0.00006838,0.00003118,-0.000
 04392,0.00111912,-0.00203119,-0.00030116,0.00014888,0.00002960,-0.0000
 7964,-0.07832306,0.10222104,-0.00273912,0.00474327,0.00322964,0.011509
 73,-0.01997768,-0.02686175,0.01152816,-0.01393479,-0.00361902,-0.00182
 745,-0.00163397,-0.00171484,-0.00050431,0.00027998,-0.00035632,-0.0021
 6448,-0.00075352,0.00028703,0.00064190,-0.00049895,0.00009002,-0.00267
 260,0.00223478,-0.00198291,0.00040997,0.00070638,0.00054105,0.00031946
 ,-0.00021701,-0.00050437,0.00060398,0.00029382,0.00087115,-0.00053909,
 -0.00040557,0.00014258,0.00000289,0.00000429,0.00001504,-0.00004278,0.
 00003500,-0.00000859,0.00002083,-0.00002488,0.00001306,-0.00244134,0.0
 0227635,-0.00278579,0.00000587,-0.00000710,0.00002256,-0.00003016,0.00
 001265,-0.00001444,0.00009843,-0.00007185,-0.00001701,0.00000851,0.000
 01257,-0.00003004,-0.00000542,-0.00000416,-0.00000464,-0.00005172,-0.0
 0000543,-0.00000335,-0.00011663,0.00003477,-0.00006665,0.00002202,-0.0
 0000521,0.00002489,-0.00000096,0.00000024,-0.00000102,0.00000374,-0.00
 000141,-0.00000005,-0.00000344,0.00000232,0.00000049,-0.00160003,0.001
 52417,-0.00207410,0.00213474,-0.00328548,-0.00425556,-0.00029111,-0.00
 134125,-0.00070421,0.00039040,0.00009451,-0.00078434,0.00053686,-0.000
 61393,0.00007981,-0.00006228,0.00003461,-0.00016619,0.00003072,0.00010
 499,0.00009975,0.00002486,-0.00002797,0.00004893,-0.00002023,0.0000186
 5,0.00002894,0.00003273,-0.00001201,-0.00000451,-0.00004203,-0.0000417
 1,-0.00004367,-0.00002171,0.00002327,0.00002975,0.00003675,-0.00000979
 ,0.00001166,-0.00000524,0.00000692,-0.00000286,0.00002188,0.00001157,-
 0.00000690,-0.00000208,0.00000322,0.00000216,0.00002065,0.00001196,-0.
 00000841,0.00053324,-0.00032777,-0.00004250,0.00001843,0.00001208,0.00
 001792,-0.01377258,0.03071906,0.04050759\\-0.00001691,0.00000876,-0.00
 000470,-0.00000521,0.00000815,0.00000410,0.00001356,-0.00001619,-0.000
 01480,0.00000379,0.00001585,0.00000941,-0.00000411,-0.00000780,0.00000
 003,-0.00000446,-0.00000887,-0.00000331,-0.00000196,-0.00000500,-0.000
 00312,0.00002549,0.00000193,-0.00000661,0.00000268,0.00000634,0.000009
 74,-0.00000380,-0.00000065,0.00000139,0.00000034,-0.00000081,0.0000050
 8,0.00000119,-0.00000561,-0.00000237,0.00000258,-0.00000171,0.00000162
 ,0.00000566,0.00000066,-0.00000046,0.00000060,-0.00000081,-0.00000038,
 -0.00000836,-0.00000345,0.00000067,-0.00000217,-0.00000425,-0.00000177
 ,-0.00000176,-0.00000620,0.00000114,0.00000238,0.00000264,-0.00000076,
 0.00000397,0.00000138,-0.00000176,0.00000106,-0.00000231,0.00000017,0.
 00000018,-0.00000324,-0.00000035,0.00000137,-0.00000039,0.00000103,0.0
 0000203,-0.00000070,0.00000531,0.00000074,-0.00000379,-0.00000030,0.00
 000188,-0.00000078,0.00000093,0.00000157,-0.00000075,0.00000011,0.0000
 0317,0.00000308,0.00000469,-0.00000723,0.00000794,0.00001174,0.0000035
 0,0.00000393,-0.00000084,0.00000242,0.00000416,0.00000006,-0.00000346,
 0.00000391,-0.00000294,-0.00000796,0.00000156,-0.00000921,-0.00000279,
 0.00001366,0.00001090,-0.00000926,0.00000156,0.00000925,0.00000046,0.0
 0000305,0.00000051,-0.00000320,0.00000210,0.00000325,-0.00000874,-0.00
 000398,-0.00000681,-0.00000426,0.00000392,0.00000015,-0.00000638,0.000
 00032,-0.00000494,0.00000394,-0.00000247,-0.00000213,-0.00000058,-0.00
 000298,0.00000038,0.00000019,0.00000183,-0.00000075,-0.00000227,0.0000
 0084,-0.00000168,0.00000367,-0.00001303,-0.00000782,0.00001044,-0.0000
 0375,-0.00000721,0.00000603,0.00000196,0.00000337\\\@
 The archive entry for this job was punched.


 NATURE REVEALS EVERY SECRET ONCE.
                    - RALPH WALDO EMERSON
 Job cpu time:       0 days  3 hours 34 minutes  6.2 seconds.
 Elapsed time:       0 days  0 hours  6 minutes 42.9 seconds.
 File lengths (MBytes):  RWF=   1612 Int=      0 D2E=      0 Chk=     37 Scr=      1
 Normal termination of Gaussian 16 at Fri Jan 31 11:42:35 2025.
