 Entering Gaussian System, Link 0=g16
 Initial command:
 /opt/packages/gaussian/g16RevC.01/g16/l1.exe "/local/Gau-102256.inp" -scrdir="/local/"
 Entering Link 1 = /opt/packages/gaussian/g16RevC.01/g16/l1.exe PID=    102288.
  
 Copyright (c) 1988-2019, Gaussian, Inc.  All Rights Reserved.
  
 This is part of the Gaussian(R) 16 program.  It is based on
 the Gaussian(R) 09 system (copyright 2009, Gaussian, Inc.),
 the Gaussian(R) 03 system (copyright 2003, Gaussian, Inc.),
 the Gaussian(R) 98 system (copyright 1998, Gaussian, Inc.),
 the Gaussian(R) 94 system (copyright 1995, Gaussian, Inc.),
 the Gaussian 92(TM) system (copyright 1992, Gaussian, Inc.),
 the Gaussian 90(TM) system (copyright 1990, Gaussian, Inc.),
 the Gaussian 88(TM) system (copyright 1988, Gaussian, Inc.),
 the Gaussian 86(TM) system (copyright 1986, Carnegie Mellon
 University), and the Gaussian 82(TM) system (copyright 1983,
 Carnegie Mellon University). Gaussian is a federally registered
 trademark of Gaussian, Inc.
  
 This software contains proprietary and confidential information,
 including trade secrets, belonging to Gaussian, Inc.
  
 This software is provided under written license and may be
 used, copied, transmitted, or stored only in accord with that
 written license.
  
 The following legend is applicable only to US Government
 contracts under FAR:
  
                    RESTRICTED RIGHTS LEGEND
  
 Use, reproduction and disclosure by the US Government is
 subject to restrictions as set forth in subparagraphs (a)
 and (c) of the Commercial Computer Software - Restricted
 Rights clause in FAR 52.227-19.
  
 Gaussian, Inc.
 340 Quinnipiac St., Bldg. 40, Wallingford CT 06492
  
  
 ---------------------------------------------------------------
 Warning -- This program may not be used in any manner that
 competes with the business of Gaussian, Inc. or will provide
 assistance to any competitor of Gaussian, Inc.  The licensee
 of this program is prohibited from giving any competitor of
 Gaussian, Inc. access to this program.  By using this program,
 the user acknowledges that Gaussian, Inc. is engaged in the
 business of creating and licensing software in the field of
 computational chemistry and represents and warrants to the
 licensee that it is not a competitor of Gaussian, Inc. and that
 it will not use this program in any manner prohibited above.
 ---------------------------------------------------------------
  

 Cite this work as:
 Gaussian 16, Revision C.01,
 M. J. Frisch, G. W. Trucks, H. B. Schlegel, G. E. Scuseria, 
 M. A. Robb, J. R. Cheeseman, G. Scalmani, V. Barone, 
 G. A. Petersson, H. Nakatsuji, X. Li, M. Caricato, A. V. Marenich, 
 J. Bloino, B. G. Janesko, R. Gomperts, B. Mennucci, H. P. Hratchian, 
 J. V. Ortiz, A. F. Izmaylov, J. L. Sonnenberg, D. Williams-Young, 
 F. Ding, F. Lipparini, F. Egidi, J. Goings, B. Peng, A. Petrone, 
 T. Henderson, D. Ranasinghe, V. G. Zakrzewski, J. Gao, N. Rega, 
 G. Zheng, W. Liang, M. Hada, M. Ehara, K. Toyota, R. Fukuda, 
 J. Hasegawa, M. Ishida, T. Nakajima, Y. Honda, O. Kitao, H. Nakai, 
 T. Vreven, K. Throssell, J. A. Montgomery, Jr., J. E. Peralta, 
 F. Ogliaro, M. J. Bearpark, J. J. Heyd, E. N. Brothers, K. N. Kudin, 
 V. N. Staroverov, T. A. Keith, R. Kobayashi, J. Normand, 
 K. Raghavachari, A. P. Rendell, J. C. Burant, S. S. Iyengar, 
 J. Tomasi, M. Cossi, J. M. Millam, M. Klene, C. Adamo, R. Cammi, 
 J. W. Ochterski, R. L. Martin, K. Morokuma, O. Farkas, 
 J. B. Foresman, and D. J. Fox, Gaussian, Inc., Wallingford CT, 2019.
 
 ******************************************
 Gaussian 16:  ES64L-G16RevC.01  3-Jul-2019
                11-Jun-2024 
 ******************************************
 %nprocshared=32
 Will use up to   32 processors via shared memory.
 %mem=64GB
 ----------------------------------------------------------------------
 #p m062x genecp opt freq nosymm scrf=(smd,solvent=propylethanoate) emp
 iricaldispersion=gd3 scf=(xqc,maxcycles=128)
 ----------------------------------------------------------------------
 1/18=20,19=15,26=3,38=1/1,3;
 2/9=110,12=2,15=1,17=6,18=5,40=1/2;
 3/5=7,11=2,16=1,17=8,25=1,30=1,70=32201,71=1,72=169,74=-55,124=31/1,2,3;
 4//1;
 5/5=2,7=128,8=3,13=1,38=5,53=169/2,8;
 6/7=2,8=2,9=2,10=2,28=1/1;
 7/30=1/1,2,3,16;
 1/18=20,19=15,26=3/3(2);
 2/9=110,15=1/2;
 99//99;
 2/9=110,15=1/2;
 3/5=7,6=1,11=2,16=1,17=8,25=1,30=1,70=32205,71=1,72=169,74=-55,82=7,124=31/1,2,3;
 4/5=5,16=3,69=1/1;
 5/5=2,7=128,8=3,13=1,38=5,53=169/2,8;
 7/30=1/1,2,3,16;
 1/18=20,19=15,26=3/3(-5);
 2/9=110,15=1/2;
 6/7=2,8=2,9=2,10=2,19=2,28=1/1;
 99/9=1/99;
 Leave Link    1 at Tue Jun 11 17:54:37 2024, MaxMem=  8589934592 cpu:               0.9 elap:               0.0
 (Enter /opt/packages/gaussian/g16RevC.01/g16/l101.exe)
 -------------------
 Title Card Required
 -------------------
 Symbolic Z-matrix:
 Charge =  0 Multiplicity = 1
 C                    -2.55276   6.38235  -1.49442 
 C                    -2.58131   5.18629  -0.82072 
 C                    -1.37062   4.53605  -0.44483 
 C                    -0.12852   5.1388   -0.80849 
 C                    -0.13482   6.3827   -1.49826 
 C                    -1.31824   6.99305  -1.82978 
 H                    -3.4886    6.86538  -1.77912 
 H                    -3.53855   4.72355  -0.5793 
 C                    -1.36225   3.2897    0.26098 
 C                     1.09398   4.48492  -0.49925 
 H                     0.82261   6.83502  -1.76364 
 H                    -1.31391   7.9454   -2.36215 
 C                     1.09579   3.26883   0.13129 
 C                    -0.13868   2.69281   0.50677 
 H                     2.03407   4.95811  -0.78789 
 C                    -2.65134   2.64534   0.66041 
 C                    -3.05589   1.44134   0.11419 
 C                    -3.48833   3.25141   1.65148 
 C                    -4.26942   0.80454   0.45756 
 C                    -4.72784   2.62872   1.98921 
 C                    -3.1145    4.44471   2.33362 
 C                    -5.09907   1.40686   1.36698 
 C                    -5.56674   3.23475   2.96498 
 C                    -3.9431    4.99888   3.27802 
 H                    -2.15662   4.9153    2.11 
 H                    -6.04963   0.94368   1.63735 
 C                    -5.18634   4.39447   3.59217 
 H                    -6.51475   2.75135   3.20824 
 H                    -3.6401    5.91014   3.79573 
 H                    -5.83441   4.85065   4.34206 
 S                    -0.05687   1.09055   1.26886 
 O                    -0.95382   1.02098   2.40623 
 O                     1.32321   0.68407   1.43638 
 S                    -1.9748    0.56376  -0.9955 
 O                    -1.47979   1.46794  -2.00857 
 O                    -2.57765  -0.70097  -1.36656 
 N                    -0.66572   0.12552  -0.00009 
 H                    -0.70482  -0.86612   0.2648 
 H                    -4.52574  -0.14605  -0.00986 
 H                     2.02203   2.73975   0.35451 
 
 ITRead=  0  0  0  0  0  0  0  0  0  0  0  0  0  0  0  0  0  0  0  0
 ITRead=  0  0  0  0  0  0  0  0  0  0  0  0  0  0  0  0  0  0  0  0
 MicOpt= -1 -1 -1 -1 -1 -1 -1 -1 -1 -1 -1 -1 -1 -1 -1 -1 -1 -1 -1 -1
 MicOpt= -1 -1 -1 -1 -1 -1 -1 -1 -1 -1 -1 -1 -1 -1 -1 -1 -1 -1 -1 -1
 NAtoms=     40 NQM=       40 NQMF=       0 NMMI=      0 NMMIF=      0
                NMic=       0 NMicF=      0.
                    Isotopes and Nuclear Properties:
 (Nuclear quadrupole moments (NQMom) in fm**2, nuclear magnetic moments (NMagM)
  in nuclear magnetons)

  Atom         1           2           3           4           5           6           7           8           9          10
 IAtWgt=          12          12          12          12          12          12           1           1          12          12
 AtmWgt=  12.0000000  12.0000000  12.0000000  12.0000000  12.0000000  12.0000000   1.0078250   1.0078250  12.0000000  12.0000000
 NucSpn=           0           0           0           0           0           0           1           1           0           0
 AtZEff=   0.0000000   0.0000000   0.0000000   0.0000000   0.0000000   0.0000000   0.0000000   0.0000000   0.0000000   0.0000000
 NQMom=    0.0000000   0.0000000   0.0000000   0.0000000   0.0000000   0.0000000   0.0000000   0.0000000   0.0000000   0.0000000
 NMagM=    0.0000000   0.0000000   0.0000000   0.0000000   0.0000000   0.0000000   2.7928460   2.7928460   0.0000000   0.0000000
 AtZNuc=   6.0000000   6.0000000   6.0000000   6.0000000   6.0000000   6.0000000   1.0000000   1.0000000   6.0000000   6.0000000

  Atom        11          12          13          14          15          16          17          18          19          20
 IAtWgt=           1           1          12          12           1          12          12          12          12          12
 AtmWgt=   1.0078250   1.0078250  12.0000000  12.0000000   1.0078250  12.0000000  12.0000000  12.0000000  12.0000000  12.0000000
 NucSpn=           1           1           0           0           1           0           0           0           0           0
 AtZEff=   0.0000000   0.0000000   0.0000000   0.0000000   0.0000000   0.0000000   0.0000000   0.0000000   0.0000000   0.0000000
 NQMom=    0.0000000   0.0000000   0.0000000   0.0000000   0.0000000   0.0000000   0.0000000   0.0000000   0.0000000   0.0000000
 NMagM=    2.7928460   2.7928460   0.0000000   0.0000000   2.7928460   0.0000000   0.0000000   0.0000000   0.0000000   0.0000000
 AtZNuc=   1.0000000   1.0000000   6.0000000   6.0000000   1.0000000   6.0000000   6.0000000   6.0000000   6.0000000   6.0000000

  Atom        21          22          23          24          25          26          27          28          29          30
 IAtWgt=          12          12          12          12           1           1          12           1           1           1
 AtmWgt=  12.0000000  12.0000000  12.0000000  12.0000000   1.0078250   1.0078250  12.0000000   1.0078250   1.0078250   1.0078250
 NucSpn=           0           0           0           0           1           1           0           1           1           1
 AtZEff=   0.0000000   0.0000000   0.0000000   0.0000000   0.0000000   0.0000000   0.0000000   0.0000000   0.0000000   0.0000000
 NQMom=    0.0000000   0.0000000   0.0000000   0.0000000   0.0000000   0.0000000   0.0000000   0.0000000   0.0000000   0.0000000
 NMagM=    0.0000000   0.0000000   0.0000000   0.0000000   2.7928460   2.7928460   0.0000000   2.7928460   2.7928460   2.7928460
 AtZNuc=   6.0000000   6.0000000   6.0000000   6.0000000   1.0000000   1.0000000   6.0000000   1.0000000   1.0000000   1.0000000

  Atom        31          32          33          34          35          36          37          38          39          40
 IAtWgt=          32          16          16          32          16          16          14           1           1           1
 AtmWgt=  31.9720718  15.9949146  15.9949146  31.9720718  15.9949146  15.9949146  14.0030740   1.0078250   1.0078250   1.0078250
 NucSpn=           0           0           0           0           0           0           2           1           1           1
 AtZEff=   0.0000000   0.0000000   0.0000000   0.0000000   0.0000000   0.0000000   0.0000000   0.0000000   0.0000000   0.0000000
 NQMom=    0.0000000   0.0000000   0.0000000   0.0000000   0.0000000   0.0000000   2.0440000   0.0000000   0.0000000   0.0000000
 NMagM=    0.0000000   0.0000000   0.0000000   0.0000000   0.0000000   0.0000000   0.4037610   2.7928460   2.7928460   2.7928460
 AtZNuc=  16.0000000   8.0000000   8.0000000  16.0000000   8.0000000   8.0000000   7.0000000   1.0000000   1.0000000   1.0000000
 Leave Link  101 at Tue Jun 11 17:54:38 2024, MaxMem=  8589934592 cpu:               5.0 elap:               0.2
 (Enter /opt/packages/gaussian/g16RevC.01/g16/l103.exe)

 GradGradGradGradGradGradGradGradGradGradGradGradGradGradGradGradGradGrad
 Berny optimization.
 Initialization pass.
                           ----------------------------
                           !    Initial Parameters    !
                           ! (Angstroms and Degrees)  !
 --------------------------                            --------------------------
 ! Name  Definition              Value          Derivative Info.                !
 --------------------------------------------------------------------------------
 ! R1    R(1,2)                  1.373          estimate D2E/DX2                !
 ! R2    R(1,6)                  1.4176         estimate D2E/DX2                !
 ! R3    R(1,7)                  1.091          estimate D2E/DX2                !
 ! R4    R(2,3)                  1.4247         estimate D2E/DX2                !
 ! R5    R(2,8)                  1.0903         estimate D2E/DX2                !
 ! R6    R(3,4)                  1.4277         estimate D2E/DX2                !
 ! R7    R(3,9)                  1.4324         estimate D2E/DX2                !
 ! R8    R(4,5)                  1.4224         estimate D2E/DX2                !
 ! R9    R(4,10)                 1.4204         estimate D2E/DX2                !
 ! R10   R(5,6)                  1.3722         estimate D2E/DX2                !
 ! R11   R(5,11)                 1.0916         estimate D2E/DX2                !
 ! R12   R(6,12)                 1.0911         estimate D2E/DX2                !
 ! R13   R(9,14)                 1.3834         estimate D2E/DX2                !
 ! R14   R(9,16)                 1.4955         estimate D2E/DX2                !
 ! R15   R(10,13)                1.3698         estimate D2E/DX2                !
 ! R16   R(10,15)                1.0913         estimate D2E/DX2                !
 ! R17   R(13,14)                1.413          estimate D2E/DX2                !
 ! R18   R(13,40)                1.0898         estimate D2E/DX2                !
 ! R19   R(14,31)                1.7762         estimate D2E/DX2                !
 ! R20   R(16,17)                1.3826         estimate D2E/DX2                !
 ! R21   R(16,18)                1.4318         estimate D2E/DX2                !
 ! R22   R(17,19)                1.4128         estimate D2E/DX2                !
 ! R23   R(17,34)                1.7805         estimate D2E/DX2                !
 ! R24   R(18,20)                1.4277         estimate D2E/DX2                !
 ! R25   R(18,21)                1.4244         estimate D2E/DX2                !
 ! R26   R(19,22)                1.3705         estimate D2E/DX2                !
 ! R27   R(19,39)                1.0899         estimate D2E/DX2                !
 ! R28   R(20,22)                1.4205         estimate D2E/DX2                !
 ! R29   R(20,23)                1.4224         estimate D2E/DX2                !
 ! R30   R(21,24)                1.3732         estimate D2E/DX2                !
 ! R31   R(21,25)                1.0904         estimate D2E/DX2                !
 ! R32   R(22,26)                1.0914         estimate D2E/DX2                !
 ! R33   R(23,27)                1.3722         estimate D2E/DX2                !
 ! R34   R(23,28)                1.0916         estimate D2E/DX2                !
 ! R35   R(24,27)                1.4176         estimate D2E/DX2                !
 ! R36   R(24,29)                1.091          estimate D2E/DX2                !
 ! R37   R(27,30)                1.0911         estimate D2E/DX2                !
 ! R38   R(31,32)                1.4502         estimate D2E/DX2                !
 ! R39   R(31,33)                1.4484         estimate D2E/DX2                !
 ! R40   R(31,37)                1.7065         estimate D2E/DX2                !
 ! R41   R(34,35)                1.4453         estimate D2E/DX2                !
 ! R42   R(34,36)                1.4494         estimate D2E/DX2                !
 ! R43   R(34,37)                1.7019         estimate D2E/DX2                !
 ! R44   R(37,38)                1.0272         estimate D2E/DX2                !
 ! A1    A(2,1,6)              120.6286         estimate D2E/DX2                !
 ! A2    A(2,1,7)              119.7288         estimate D2E/DX2                !
 ! A3    A(6,1,7)              119.6419         estimate D2E/DX2                !
 ! A4    A(1,2,3)              120.6201         estimate D2E/DX2                !
 ! A5    A(1,2,8)              119.7766         estimate D2E/DX2                !
 ! A6    A(3,2,8)              119.6004         estimate D2E/DX2                !
 ! A7    A(2,3,4)              118.6468         estimate D2E/DX2                !
 ! A8    A(2,3,9)              122.1473         estimate D2E/DX2                !
 ! A9    A(4,3,9)              119.1951         estimate D2E/DX2                !
 ! A10   A(3,4,5)              119.2667         estimate D2E/DX2                !
 ! A11   A(3,4,10)             119.9309         estimate D2E/DX2                !
 ! A12   A(5,4,10)             120.7947         estimate D2E/DX2                !
 ! A13   A(4,5,6)              120.6624         estimate D2E/DX2                !
 ! A14   A(4,5,11)             118.4484         estimate D2E/DX2                !
 ! A15   A(6,5,11)             120.8876         estimate D2E/DX2                !
 ! A16   A(1,6,5)              120.1515         estimate D2E/DX2                !
 ! A17   A(1,6,12)             119.6653         estimate D2E/DX2                !
 ! A18   A(5,6,12)             120.18           estimate D2E/DX2                !
 ! A19   A(3,9,14)             117.9143         estimate D2E/DX2                !
 ! A20   A(3,9,16)             120.0987         estimate D2E/DX2                !
 ! A21   A(14,9,16)            121.9404         estimate D2E/DX2                !
 ! A22   A(4,10,13)            120.6645         estimate D2E/DX2                !
 ! A23   A(4,10,15)            118.9602         estimate D2E/DX2                !
 ! A24   A(13,10,15)           120.3664         estimate D2E/DX2                !
 ! A25   A(10,13,14)           118.885          estimate D2E/DX2                !
 ! A26   A(10,13,40)           121.7621         estimate D2E/DX2                !
 ! A27   A(14,13,40)           119.352          estimate D2E/DX2                !
 ! A28   A(9,14,13)            123.3389         estimate D2E/DX2                !
 ! A29   A(9,14,31)            120.4105         estimate D2E/DX2                !
 ! A30   A(13,14,31)           116.2003         estimate D2E/DX2                !
 ! A31   A(9,16,17)            121.4596         estimate D2E/DX2                !
 ! A32   A(9,16,18)            120.4232         estimate D2E/DX2                !
 ! A33   A(17,16,18)           118.1002         estimate D2E/DX2                !
 ! A34   A(16,17,19)           123.2168         estimate D2E/DX2                !
 ! A35   A(16,17,34)           119.8518         estimate D2E/DX2                !
 ! A36   A(19,17,34)           116.7976         estimate D2E/DX2                !
 ! A37   A(16,18,20)           119.1206         estimate D2E/DX2                !
 ! A38   A(16,18,21)           122.1854         estimate D2E/DX2                !
 ! A39   A(20,18,21)           118.6826         estimate D2E/DX2                !
 ! A40   A(17,19,22)           118.8927         estimate D2E/DX2                !
 ! A41   A(17,19,39)           119.4006         estimate D2E/DX2                !
 ! A42   A(22,19,39)           121.7054         estimate D2E/DX2                !
 ! A43   A(18,20,22)           119.8967         estimate D2E/DX2                !
 ! A44   A(18,20,23)           119.2429         estimate D2E/DX2                !
 ! A45   A(22,20,23)           120.8529         estimate D2E/DX2                !
 ! A46   A(18,21,24)           120.6021         estimate D2E/DX2                !
 ! A47   A(18,21,25)           119.5953         estimate D2E/DX2                !
 ! A48   A(24,21,25)           119.7995         estimate D2E/DX2                !
 ! A49   A(19,22,20)           120.6963         estimate D2E/DX2                !
 ! A50   A(19,22,26)           120.3397         estimate D2E/DX2                !
 ! A51   A(20,22,26)           118.9552         estimate D2E/DX2                !
 ! A52   A(20,23,27)           120.673          estimate D2E/DX2                !
 ! A53   A(20,23,28)           118.4512         estimate D2E/DX2                !
 ! A54   A(27,23,28)           120.8739         estimate D2E/DX2                !
 ! A55   A(21,24,27)           120.6334         estimate D2E/DX2                !
 ! A56   A(21,24,29)           119.7264         estimate D2E/DX2                !
 ! A57   A(27,24,29)           119.6394         estimate D2E/DX2                !
 ! A58   A(23,27,24)           120.1428         estimate D2E/DX2                !
 ! A59   A(23,27,30)           120.1878         estimate D2E/DX2                !
 ! A60   A(24,27,30)           119.6666         estimate D2E/DX2                !
 ! A61   A(14,31,32)           110.5672         estimate D2E/DX2                !
 ! A62   A(14,31,33)           110.2839         estimate D2E/DX2                !
 ! A63   A(14,31,37)           100.0583         estimate D2E/DX2                !
 ! A64   A(32,31,33)           119.0232         estimate D2E/DX2                !
 ! A65   A(32,31,37)           109.5968         estimate D2E/DX2                !
 ! A66   A(33,31,37)           105.5005         estimate D2E/DX2                !
 ! A67   A(17,34,35)           109.6617         estimate D2E/DX2                !
 ! A68   A(17,34,36)           109.7001         estimate D2E/DX2                !
 ! A69   A(17,34,37)           103.2634         estimate D2E/DX2                !
 ! A70   A(35,34,36)           120.5909         estimate D2E/DX2                !
 ! A71   A(35,34,37)           107.9153         estimate D2E/DX2                !
 ! A72   A(36,34,37)           104.1801         estimate D2E/DX2                !
 ! A73   A(31,37,34)           124.3126         estimate D2E/DX2                !
 ! A74   A(31,37,38)           111.5776         estimate D2E/DX2                !
 ! A75   A(34,37,38)           111.7245         estimate D2E/DX2                !
 ! D1    D(6,1,2,3)              0.0397         estimate D2E/DX2                !
 ! D2    D(6,1,2,8)           -179.339          estimate D2E/DX2                !
 ! D3    D(7,1,2,3)            179.7269         estimate D2E/DX2                !
 ! D4    D(7,1,2,8)              0.3482         estimate D2E/DX2                !
 ! D5    D(2,1,6,5)              0.8724         estimate D2E/DX2                !
 ! D6    D(2,1,6,12)          -179.7796         estimate D2E/DX2                !
 ! D7    D(7,1,6,5)           -178.8151         estimate D2E/DX2                !
 ! D8    D(7,1,6,12)             0.5329         estimate D2E/DX2                !
 ! D9    D(1,2,3,4)             -1.347          estimate D2E/DX2                !
 ! D10   D(1,2,3,9)            179.857          estimate D2E/DX2                !
 ! D11   D(8,2,3,4)            178.0328         estimate D2E/DX2                !
 ! D12   D(8,2,3,9)             -0.7632         estimate D2E/DX2                !
 ! D13   D(2,3,4,5)              1.7571         estimate D2E/DX2                !
 ! D14   D(2,3,4,10)          -177.2437         estimate D2E/DX2                !
 ! D15   D(9,3,4,5)           -179.4107         estimate D2E/DX2                !
 ! D16   D(9,3,4,10)             1.5885         estimate D2E/DX2                !
 ! D17   D(2,3,9,14)           175.9192         estimate D2E/DX2                !
 ! D18   D(2,3,9,16)            -1.6483         estimate D2E/DX2                !
 ! D19   D(4,3,9,14)            -2.8704         estimate D2E/DX2                !
 ! D20   D(4,3,9,16)           179.5621         estimate D2E/DX2                !
 ! D21   D(3,4,5,6)             -0.8892         estimate D2E/DX2                !
 ! D22   D(3,4,5,11)           179.5763         estimate D2E/DX2                !
 ! D23   D(10,4,5,6)           178.1027         estimate D2E/DX2                !
 ! D24   D(10,4,5,11)           -1.4318         estimate D2E/DX2                !
 ! D25   D(3,4,10,13)            0.8552         estimate D2E/DX2                !
 ! D26   D(3,4,10,15)          179.7718         estimate D2E/DX2                !
 ! D27   D(5,4,10,13)         -178.1301         estimate D2E/DX2                !
 ! D28   D(5,4,10,15)            0.7865         estimate D2E/DX2                !
 ! D29   D(4,5,6,1)             -0.4317         estimate D2E/DX2                !
 ! D30   D(4,5,6,12)          -179.7764         estimate D2E/DX2                !
 ! D31   D(11,5,6,1)           179.0913         estimate D2E/DX2                !
 ! D32   D(11,5,6,12)           -0.2533         estimate D2E/DX2                !
 ! D33   D(3,9,14,13)            1.8691         estimate D2E/DX2                !
 ! D34   D(3,9,14,31)         -175.453          estimate D2E/DX2                !
 ! D35   D(16,9,14,13)         179.3892         estimate D2E/DX2                !
 ! D36   D(16,9,14,31)           2.067          estimate D2E/DX2                !
 ! D37   D(3,9,16,17)          113.9541         estimate D2E/DX2                !
 ! D38   D(3,9,16,18)          -67.5736         estimate D2E/DX2                !
 ! D39   D(14,9,16,17)         -63.5129         estimate D2E/DX2                !
 ! D40   D(14,9,16,18)         114.9594         estimate D2E/DX2                !
 ! D41   D(4,10,13,14)          -1.9185         estimate D2E/DX2                !
 ! D42   D(4,10,13,40)         178.4335         estimate D2E/DX2                !
 ! D43   D(15,10,13,14)        179.1802         estimate D2E/DX2                !
 ! D44   D(15,10,13,40)         -0.4678         estimate D2E/DX2                !
 ! D45   D(10,13,14,9)           0.5419         estimate D2E/DX2                !
 ! D46   D(10,13,14,31)        177.968          estimate D2E/DX2                !
 ! D47   D(40,13,14,9)        -179.8015         estimate D2E/DX2                !
 ! D48   D(40,13,14,31)         -2.3754         estimate D2E/DX2                !
 ! D49   D(9,14,31,32)         -45.6108         estimate D2E/DX2                !
 ! D50   D(9,14,31,33)        -179.3305         estimate D2E/DX2                !
 ! D51   D(9,14,31,37)          69.8809         estimate D2E/DX2                !
 ! D52   D(13,14,31,32)        136.8825         estimate D2E/DX2                !
 ! D53   D(13,14,31,33)          3.1627         estimate D2E/DX2                !
 ! D54   D(13,14,31,37)       -107.6258         estimate D2E/DX2                !
 ! D55   D(9,16,17,19)        -179.5601         estimate D2E/DX2                !
 ! D56   D(9,16,17,34)           4.7831         estimate D2E/DX2                !
 ! D57   D(18,16,17,19)          1.9333         estimate D2E/DX2                !
 ! D58   D(18,16,17,34)       -173.7235         estimate D2E/DX2                !
 ! D59   D(9,16,18,20)         178.5504         estimate D2E/DX2                !
 ! D60   D(9,16,18,21)          -2.6902         estimate D2E/DX2                !
 ! D61   D(17,16,18,20)         -2.9268         estimate D2E/DX2                !
 ! D62   D(17,16,18,21)        175.8325         estimate D2E/DX2                !
 ! D63   D(16,17,19,22)          0.5854         estimate D2E/DX2                !
 ! D64   D(16,17,19,39)       -179.8337         estimate D2E/DX2                !
 ! D65   D(34,17,19,22)        176.3655         estimate D2E/DX2                !
 ! D66   D(34,17,19,39)         -4.0536         estimate D2E/DX2                !
 ! D67   D(16,17,34,35)        -49.0263         estimate D2E/DX2                !
 ! D68   D(16,17,34,36)        176.3906         estimate D2E/DX2                !
 ! D69   D(16,17,34,37)         65.7974         estimate D2E/DX2                !
 ! D70   D(19,17,34,35)        135.0439         estimate D2E/DX2                !
 ! D71   D(19,17,34,36)          0.4609         estimate D2E/DX2                !
 ! D72   D(19,17,34,37)       -110.1323         estimate D2E/DX2                !
 ! D73   D(16,18,20,22)          1.5312         estimate D2E/DX2                !
 ! D74   D(16,18,20,23)       -179.4571         estimate D2E/DX2                !
 ! D75   D(21,18,20,22)       -177.2719         estimate D2E/DX2                !
 ! D76   D(21,18,20,23)          1.7398         estimate D2E/DX2                !
 ! D77   D(16,18,21,24)        179.9475         estimate D2E/DX2                !
 ! D78   D(16,18,21,25)         -0.6923         estimate D2E/DX2                !
 ! D79   D(20,18,21,24)         -1.2879         estimate D2E/DX2                !
 ! D80   D(20,18,21,25)        178.0723         estimate D2E/DX2                !
 ! D81   D(17,19,22,20)         -2.0741         estimate D2E/DX2                !
 ! D82   D(17,19,22,26)        179.0167         estimate D2E/DX2                !
 ! D83   D(39,19,22,20)        178.3552         estimate D2E/DX2                !
 ! D84   D(39,19,22,26)         -0.5541         estimate D2E/DX2                !
 ! D85   D(18,20,22,19)          1.0173         estimate D2E/DX2                !
 ! D86   D(18,20,22,26)        179.9414         estimate D2E/DX2                !
 ! D87   D(23,20,22,19)       -177.9782         estimate D2E/DX2                !
 ! D88   D(23,20,22,26)          0.9459         estimate D2E/DX2                !
 ! D89   D(18,20,23,27)         -0.9226         estimate D2E/DX2                !
 ! D90   D(18,20,23,28)        179.5776         estimate D2E/DX2                !
 ! D91   D(22,20,23,27)        178.0793         estimate D2E/DX2                !
 ! D92   D(22,20,23,28)         -1.4205         estimate D2E/DX2                !
 ! D93   D(18,21,24,27)         -0.0111         estimate D2E/DX2                !
 ! D94   D(18,21,24,29)        179.6666         estimate D2E/DX2                !
 ! D95   D(25,21,24,27)       -179.37           estimate D2E/DX2                !
 ! D96   D(25,21,24,29)          0.3077         estimate D2E/DX2                !
 ! D97   D(20,23,27,24)         -0.3876         estimate D2E/DX2                !
 ! D98   D(20,23,27,30)       -179.781          estimate D2E/DX2                !
 ! D99   D(28,23,27,24)        179.1            estimate D2E/DX2                !
 ! D100  D(28,23,27,30)         -0.2934         estimate D2E/DX2                !
 ! D101  D(21,24,27,23)          0.8706         estimate D2E/DX2                !
 ! D102  D(21,24,27,30)       -179.7328         estimate D2E/DX2                !
 ! D103  D(29,24,27,23)       -178.8073         estimate D2E/DX2                !
 ! D104  D(29,24,27,30)          0.5892         estimate D2E/DX2                !
 ! D105  D(14,31,37,34)        -40.6416         estimate D2E/DX2                !
 ! D106  D(14,31,37,38)       -179.3885         estimate D2E/DX2                !
 ! D107  D(32,31,37,34)         75.5821         estimate D2E/DX2                !
 ! D108  D(32,31,37,38)        -63.1648         estimate D2E/DX2                !
 ! D109  D(33,31,37,34)       -155.1336         estimate D2E/DX2                !
 ! D110  D(33,31,37,38)         66.1195         estimate D2E/DX2                !
 ! D111  D(17,34,37,31)        -35.4571         estimate D2E/DX2                !
 ! D112  D(17,34,37,38)        103.2386         estimate D2E/DX2                !
 ! D113  D(35,34,37,31)         80.6153         estimate D2E/DX2                !
 ! D114  D(35,34,37,38)       -140.689          estimate D2E/DX2                !
 ! D115  D(36,34,37,31)       -150.0884         estimate D2E/DX2                !
 ! D116  D(36,34,37,38)        -11.3927         estimate D2E/DX2                !
 --------------------------------------------------------------------------------
 Trust Radius=3.00D-01 FncErr=1.00D-07 GrdErr=1.00D-06 EigMax=2.50D+02 EigMin=1.00D-04
 Number of steps in this run=    240 maximum allowed number of steps=    240.
 GradGradGradGradGradGradGradGradGradGradGradGradGradGradGradGradGradGrad

 Leave Link  103 at Tue Jun 11 17:54:38 2024, MaxMem=  8589934592 cpu:               0.3 elap:               0.0
 (Enter /opt/packages/gaussian/g16RevC.01/g16/l202.exe)
                          Input orientation:                          
 ---------------------------------------------------------------------
 Center     Atomic      Atomic             Coordinates (Angstroms)
 Number     Number       Type             X           Y           Z
 ---------------------------------------------------------------------
      1          6           0       -2.552757    6.382353   -1.494420
      2          6           0       -2.581311    5.186289   -0.820721
      3          6           0       -1.370619    4.536054   -0.444826
      4          6           0       -0.128516    5.138803   -0.808487
      5          6           0       -0.134818    6.382695   -1.498260
      6          6           0       -1.318238    6.993051   -1.829782
      7          1           0       -3.488603    6.865381   -1.779124
      8          1           0       -3.538546    4.723554   -0.579297
      9          6           0       -1.362250    3.289695    0.260976
     10          6           0        1.093978    4.484924   -0.499252
     11          1           0        0.822611    6.835017   -1.763643
     12          1           0       -1.313910    7.945404   -2.362152
     13          6           0        1.095786    3.268834    0.131294
     14          6           0       -0.138678    2.692811    0.506771
     15          1           0        2.034069    4.958105   -0.787893
     16          6           0       -2.651343    2.645340    0.660412
     17          6           0       -3.055893    1.441343    0.114192
     18          6           0       -3.488330    3.251407    1.651476
     19          6           0       -4.269417    0.804543    0.457560
     20          6           0       -4.727838    2.628716    1.989206
     21          6           0       -3.114497    4.444713    2.333622
     22          6           0       -5.099074    1.406858    1.366979
     23          6           0       -5.566740    3.234747    2.964976
     24          6           0       -3.943103    4.998878    3.278024
     25          1           0       -2.156621    4.915296    2.110000
     26          1           0       -6.049629    0.943684    1.637346
     27          6           0       -5.186342    4.394468    3.592166
     28          1           0       -6.514745    2.751350    3.208238
     29          1           0       -3.640101    5.910141    3.795728
     30          1           0       -5.834408    4.850651    4.342057
     31         16           0       -0.056868    1.090550    1.268858
     32          8           0       -0.953818    1.020983    2.406226
     33          8           0        1.323212    0.684073    1.436377
     34         16           0       -1.974798    0.563763   -0.995497
     35          8           0       -1.479789    1.467936   -2.008570
     36          8           0       -2.577650   -0.700973   -1.366564
     37          7           0       -0.665716    0.125517   -0.000094
     38          1           0       -0.704821   -0.866122    0.264801
     39          1           0       -4.525742   -0.146049   -0.009856
     40          1           0        2.022026    2.739753    0.354505
 ---------------------------------------------------------------------
                    Distance matrix (angstroms):
                    1          2          3          4          5
     1  C    0.000000
     2  C    1.373046   0.000000
     3  C    2.430621   1.424738   0.000000
     4  C    2.809602   2.453285   1.427717   0.000000
     5  C    2.417942   2.806381   2.459067   1.422355   0.000000
     6  C    1.417553   2.424448   2.820936   2.428316   1.372197
     7  H    1.090954   2.135665   3.419353   3.900435   3.399962
     8  H    2.135613   1.090279   2.180171   3.442857   3.896486
     9  C    3.750101   2.500649   1.432354   2.466790   3.764060
    10  C    4.229571   3.755397   2.465728   1.420449   2.471739
    11  H    3.416211   3.897960   3.440170   2.166589   1.091647
    12  H    2.175047   3.405148   3.911908   3.419948   2.139773
    13  C    5.064466   4.254881   2.832122   2.424642   3.723703
    14  C    4.842031   3.734451   2.412625   2.777208   4.199453
    15  H    4.854548   4.621134   3.447858   2.170219   2.690381
    16  C    4.314891   2.941952   2.537046   3.839229   4.996057
    17  C    5.220571   3.888947   3.567897   4.805422   5.962352
    18  C    4.535943   3.267753   3.244919   4.571874   5.565235
    19  C    6.153788   4.866560   4.810562   6.126642   7.213593
    20  C    5.563849   4.363994   4.564359   5.939814   6.881178
    21  C    4.327113   3.283916   3.281650   4.389840   5.226622
    22  C    6.279083   5.040760   5.193831   6.585326   7.590282
    23  C    6.235201   5.201231   5.561257   6.887578   7.702975
    24  C    5.159776   4.323114   4.548790   5.591979   6.263455
    25  H    3.911652   2.973705   2.699770   3.561001   4.388677
    26  H    7.184371   6.005915   6.255693   7.657722   8.625535
    27  C    6.063070   5.185242   5.556716   6.745471   7.442001
    28  H    7.141185   6.134602   6.556834   7.913149   8.720164
    29  H    5.421344   4.791305   5.002096   5.841660   6.366838
    30  H    6.868756   6.111429   6.552758   7.692096   8.303119
    31  S    6.470575   5.245401   4.066221   4.550698   5.972421
    32  O    6.820259   5.514680   4.545101   5.288851   6.683093
    33  O    7.488865   6.372577   5.062945   5.195339   6.573602
    34  S    5.868471   4.665421   4.055535   4.937076   6.123583
    35  O    5.056392   4.055920   3.445368   4.091626   5.120959
    36  O    7.084524   5.912513   5.452795   6.357098   7.494206
    37  N    6.703874   5.473056   4.488598   5.106380   6.455899
    38  H    7.684407   6.428939   5.489113   6.127251   7.481887
    39  H    6.979730   5.733423   5.662693   6.921204   8.007500
    40  H    6.133164   5.343913   3.921182   3.425321   4.621227
                    6          7          8          9         10
     6  C    0.000000
     7  H    2.174707   0.000000
     8  H    3.412345   2.455504   0.000000
     9  C    4.253005   4.633456   2.738298   0.000000
    10  C    3.725560   5.320216   4.639357   2.835414   0.000000
    11  H    2.147693   4.311349   4.988050   4.630552   2.682399
    12  H    1.091060   2.497131   4.302080   5.344040   4.609039
    13  C    4.852126   6.132004   4.908990   2.461543   1.369842
    14  C    5.034174   5.818733   4.106405   1.383407   2.396496
    15  H    4.057647   5.926225   5.581448   3.926665   1.091323
    16  C    5.184672   4.945815   2.577398   1.495494   4.330857
    17  C    6.133510   5.761256   3.389217   2.511250   5.182772
    18  C    5.552329   4.982953   2.673217   2.540703   5.210062
    19  C    7.227657   6.507394   4.119210   3.829653   6.574701
    20  C    6.727367   5.803908   3.521359   3.840684   6.597839
    21  C    5.201395   4.786885   2.956800   2.949627   5.073269
    22  C    7.464553   6.502850   4.150146   4.328068   7.163184
    23  C    7.427269   6.325080   4.346491   4.999237   7.611109
    24  C    6.079171   5.409727   3.888238   4.322579   6.316973
    25  H    4.532310   4.549977   3.029653   2.586985   4.190443
    26  H    8.426261   7.300522   5.050392   5.419380   8.254487
    27  C    7.149292   6.151299   4.497181   5.190475   7.496019
    28  H    8.389121   7.138387   5.205072   5.960233   8.639643
    29  H    6.181432   5.658128   4.534219   4.954777   6.549015
    30  H    7.942120   6.857900   5.432022   6.252360   8.460175
    31  S    6.784699   7.376698   5.360641   2.748834   3.996553
    32  O    7.330905   7.622288   5.413243   3.148963   4.963281
    33  O    7.579463   8.467678   6.634534   3.922058   4.271496
    34  S    6.516352   6.528098   4.463451   3.063437   5.003913
    35  O    5.530367   5.763713   4.108570   2.912638   4.243175
    36  O    7.810166   7.632153   5.564944   4.477892   6.413003
    37  N    7.136986   7.520599   5.452575   3.250437   4.727590
    38  H    8.156602   8.467775   6.323526   4.207498   5.696766
    39  H    8.035357   7.305212   5.001185   4.678180   7.298402
    40  H    5.832582   7.206956   5.977241   3.429943   2.153090
                   11         12         13         14         15
    11  H    0.000000
    12  H    2.481107   0.000000
    13  C    4.047601   5.821874   0.000000
    14  C    4.820449   6.099313   1.413042   0.000000
    15  H    2.437728   4.755125   2.139840   3.395371   0.000000
    16  C    5.958002   6.246223   3.835321   2.517805   5.422136
    17  C    6.903678   7.174231   4.536128   3.198505   6.252126
    18  C    6.564260   6.547589   4.829635   3.583650   6.273773
    19  C    8.199336   8.226645   5.913086   4.542134   7.650959
    20  C    7.911026   7.671792   6.146233   4.823081   7.672139
    21  C    6.164572   6.127581   4.894836   3.906667   6.042777
    22  C    8.621604   8.425347   6.585603   5.196072   8.254487
    23  C    8.726144   8.285840   7.240177   5.983337   8.650219
    24  C    7.176478   6.885220   6.187517   5.241320   7.229103
    25  H    5.250358   5.467345   4.147803   3.403216   5.095243
    26  H    9.669654   9.351316   7.663646   6.267135   9.345776
    27  C    8.411212   7.940956   7.260153   6.155827   8.463861
    28  H    9.758726   9.222588   8.225300   6.924997   9.691287
    29  H    7.188727   6.890061   6.544708   5.781731   7.356097
    30  H    9.248415   8.657876   8.261977   7.197710   9.393661
    31  S    6.555032   7.858334   2.714329   1.776150   4.853888
    32  O    7.372008   8.415147   3.798556   2.658457   5.884794
    33  O    6.951607   8.608726   2.904471   2.652606   4.870323
    34  S    6.909716   7.536123   4.244473   3.187631   5.951836
    35  O    5.845220   6.489232   3.802083   3.102553   5.100836
    36  O    8.277113   8.794775   5.612226   4.579928   7.323112
    37  N    7.095253   8.194517   3.605634   2.669397   5.591366
    38  H    8.108956   9.214926   4.511970   3.611796   6.521603
    39  H    8.967493   9.017803   6.578976   5.250939   8.347985
    40  H    4.764067   6.753332   1.089803   2.166571   2.495256
                   16         17         18         19         20
    16  C    0.000000
    17  C    1.382616   0.000000
    18  C    1.431807   2.413830   0.000000
    19  C    2.459237   1.412819   2.832433   0.000000
    20  C    2.465320   2.778657   1.427650   2.425633   0.000000
    21  C    2.500377   3.734908   1.424448   4.254913   2.453434
    22  C    2.832748   2.396926   2.465319   1.370459   1.420535
    23  C    3.762706   4.200907   2.458729   3.725060   1.422377
    24  C    3.749624   4.842833   2.430253   5.064972   2.809720
    25  H    2.738386   4.106128   2.179959   4.908437   3.442992
    26  H    3.924077   3.395603   3.447613   2.140189   2.170316
    27  C    4.252158   5.035480   2.820658   4.853253   2.428495
    28  H    4.629096   4.822126   3.439877   4.049418   2.166591
    29  H    4.633225   5.819378   3.419023   6.132417   3.900570
    30  H    5.343202   6.100686   3.911635   5.823187   3.420146
    31  S    3.085268   3.232717   4.073160   4.299485   4.970193
    32  O    2.927113   3.138286   3.459507   3.851927   4.123341
    33  O    4.499531   4.636614   5.457876   5.678917   6.379848
    34  S    2.744578   1.780540   4.064563   2.726651   4.555405
    35  O    3.143610   2.644037   4.539928   3.782051   5.280099
    36  O    3.913039   2.647805   5.055612   2.907934   5.193393
    37  N    3.275437   2.730825   4.523939   3.695563   5.169541
    38  H    4.034330   3.297668   5.159926   3.941399   5.601083
    39  H    3.428481   2.166947   3.921601   1.089865   3.425845
    40  H    4.684322   5.246797   5.684008   6.583154   6.945879
                   21         22         23         24         25
    21  C    0.000000
    22  C    3.755197   0.000000
    23  C    2.806443   2.472546   0.000000
    24  C    1.373165   4.229772   2.417924   0.000000
    25  H    1.090404   4.638884   3.896683   2.136067   0.000000
    26  H    4.621364   1.091413   2.691608   4.855293   5.581453
    27  C    2.424665   3.726243   1.372233   1.417618   3.412812
    28  H    3.897963   2.683658   1.091587   3.416079   4.988189
    29  H    2.135765   5.320431   3.399973   1.090976   2.456035
    30  H    3.405365   4.609937   2.139893   2.175126   4.302601
    31  S    4.661891   5.053070   6.150861   5.866396   4.443553
    32  O    4.049164   4.290930   5.147038   5.051683   4.086583
    33  O    5.885637   6.463203   7.504265   7.052892   5.519624
    34  S    5.238675   4.006645   5.976751   6.465868   5.349113
    35  O    5.512541   4.949473   6.675399   6.817884   5.413410
    36  O    6.360634   4.274668   6.571666   7.478299   6.618628
    37  N    5.486184   4.813043   6.517591   6.725843   5.442176
    38  H    6.188015   5.068599   6.909872   7.346033   6.239974
    39  H    5.344024   2.153115   4.622022   6.133506   5.976934
    40  H    5.762609   7.315174   8.040457   7.016650   5.027508
                   26         27         28         29         30
    26  H    0.000000
    27  C    4.058879   0.000000
    28  H    2.439609   2.147532   0.000000
    29  H    5.927068   2.174756   4.311228   0.000000
    30  H    4.756698   1.091068   2.481022   2.497194   0.000000
    31  S    6.005875   6.528793   6.944323   6.515603   7.547376
    32  O    5.154070   5.540859   5.878886   5.748974   6.498766
    33  O    7.380147   7.796714   8.297391   7.583719   8.776951
    34  S    4.866256   6.784907   6.562625   7.369724   7.858975
    35  O    5.869496   7.326075   7.362949   7.621680   8.410466
    36  O    4.876783   7.573493   6.953277   8.454874   8.603218
    37  N    5.686574   7.180831   7.169347   7.531076   8.239936
    38  H    5.807431   7.670019   7.450177   8.185417   8.695871
    39  H    2.494599   5.833288   4.765205   7.207237   6.754166
    40  H    8.367984   8.073481   9.001132   7.345275   9.059802
                   31         32         33         34         35
    31  S    0.000000
    32  O    1.450160   0.000000
    33  O    1.448415   2.497795   0.000000
    34  S    3.013845   3.580945   4.099434   0.000000
    35  O    3.592862   4.468427   4.509869   1.445296   0.000000
    36  O    4.063169   4.453752   4.999155   1.449372   2.514287
    37  N    1.706524   2.583648   2.516201   1.701935   2.549270
    38  H    2.292714   2.865112   2.808667   2.290363   3.349122
    39  H    4.809898   4.467444   6.082019   2.825356   3.984675
    40  H    2.806726   4.002421   2.425821   4.746793   4.411842
                   36         37         38         39         40
    36  O    0.000000
    37  N    2.491148   0.000000
    38  H    2.489200   1.027155   0.000000
    39  H    2.437962   3.869579   3.897869   0.000000
    40  H    5.996473   3.766156   4.521734   7.164766   0.000000
 Symmetry turned off by external request.
 Stoichiometry    C20H13NO4S2
 Framework group  C1[X(C20H13NO4S2)]
 Deg. of freedom   114
 Full point group                 C1      NOp   1
 Rotational constants (GHZ):           0.2075287           0.2046494           0.1431407
 Leave Link  202 at Tue Jun 11 17:54:38 2024, MaxMem=  8589934592 cpu:               0.1 elap:               0.0
 (Enter /opt/packages/gaussian/g16RevC.01/g16/l301.exe)
 General basis read from cards:  (5D, 7F)
 Centers:       1      2      3      4      5      6      9     10     13     14
 Centers:      16     17     18     19     20     21     22     23     24     27
 Centers:       7      8     11     12     15     25     26     28     29     30
 Centers:      38     39     40     37     32     33     35     36
 def2svp
 ****
 Centers:      31     34
 def2tzvp
 ****
 ======================================================================================================
                                       Pseudopotential Parameters
 ======================================================================================================
  Center     Atomic      Valence      Angular      Power
  Number     Number     Electrons     Momentum     of R      Exponent        Coefficient   SO-Coeffient
 ======================================================================================================
    1          6
                                   No pseudopotential on this center.
    2          6
                                   No pseudopotential on this center.
    3          6
                                   No pseudopotential on this center.
    4          6
                                   No pseudopotential on this center.
    5          6
                                   No pseudopotential on this center.
    6          6
                                   No pseudopotential on this center.
    7          1
                                   No pseudopotential on this center.
    8          1
                                   No pseudopotential on this center.
    9          6
                                   No pseudopotential on this center.
   10          6
                                   No pseudopotential on this center.
   11          1
                                   No pseudopotential on this center.
   12          1
                                   No pseudopotential on this center.
   13          6
                                   No pseudopotential on this center.
   14          6
                                   No pseudopotential on this center.
   15          1
                                   No pseudopotential on this center.
   16          6
                                   No pseudopotential on this center.
   17          6
                                   No pseudopotential on this center.
   18          6
                                   No pseudopotential on this center.
   19          6
                                   No pseudopotential on this center.
   20          6
                                   No pseudopotential on this center.
   21          6
                                   No pseudopotential on this center.
   22          6
                                   No pseudopotential on this center.
   23          6
                                   No pseudopotential on this center.
   24          6
                                   No pseudopotential on this center.
   25          1
                                   No pseudopotential on this center.
   26          1
                                   No pseudopotential on this center.
   27          6
                                   No pseudopotential on this center.
   28          1
                                   No pseudopotential on this center.
   29          1
                                   No pseudopotential on this center.
   30          1
                                   No pseudopotential on this center.
   31         16
                                   No pseudopotential on this center.
   32          8
                                   No pseudopotential on this center.
   33          8
                                   No pseudopotential on this center.
   34         16
                                   No pseudopotential on this center.
   35          8
                                   No pseudopotential on this center.
   36          8
                                   No pseudopotential on this center.
   37          7
                                   No pseudopotential on this center.
   38          1
                                   No pseudopotential on this center.
   39          1
                                   No pseudopotential on this center.
   40          1
                                   No pseudopotential on this center.
 ======================================================================================================
 Ernie: Thresh=  0.10000D-02 Tol=  0.10000D-05 Strict=F.
   489 basis functions,   854 primitive gaussians,   524 cartesian basis functions
   102 alpha electrons      102 beta electrons
       nuclear repulsion energy      2948.2102537879 Hartrees.
 IExCor= 4336 DFT=T Ex+Corr=M062X ExCW=0 ScaHFX=  0.540000
 ScaDFX=  1.000000  1.000000  1.000000  1.000000 ScalE2=  1.000000  1.000000
 IRadAn=      5 IRanWt=     -1 IRanGd=            0 ICorTp=0 IEmpDi=131
 NAtoms=   40 NActive=   40 NUniq=   40 SFac= 1.00D+00 NAtFMM=   60 NAOKFM=F Big=F
 Integral buffers will be    131072 words long.
 Raffenetti 2 integral format.
 Two-electron integral symmetry is turned off.
 R6Disp:  Grimme-D3 Dispersion energy=       -0.0035384564 Hartrees.
 Nuclear repulsion after empirical dispersion term =     2948.2067153316 Hartrees.
 ------------------------------------------------------------------------------
 Polarizable Continuum Model (PCM)
 =================================
 Model                : PCM.
 Atomic radii         : SMD-Coulomb.
 Polarization charges : Total charges.
 Charge compensation  : None.
 Solution method      : On-the-fly selection.
 Cavity type          : VdW (van der Waals Surface) (Alpha=1.000).
 Cavity algorithm     : GePol (No added spheres)
                        Default sphere list used, NSphG=   40.
                        Lebedev-Laikov grids with approx.  5.0 points / Ang**2.
                        Smoothing algorithm: York/Karplus (Gamma=1.0000).
                        Polarization charges: spherical gaussians, with
                                              point-specific exponents (IZeta= 3).
                        Self-potential: point-specific (ISelfS= 7).
                        Self-field    : sphere-specific E.n sum rule (ISelfD= 2).
 1st derivatives      : Analytical E(r).r(x)/FMM algorithm (CHGder, D1EAlg=3).
                        Cavity 1st derivative terms included.
 Solvent              : PropylEthanoate, Eps=   5.520500 Eps(inf)=   1.916010
 ------------------------------------------------------------------------------
 GePol: Number of generator spheres                  =      40
 GePol: Total number of spheres                      =      40
 GePol: Number of exposed spheres                    =      40 (100.00%)
 GePol: Number of points                             =    3272
 GePol: Average weight of points                     =       0.12
 GePol: Minimum weight of points                     =   0.38D-10
 GePol: Maximum weight of points                     =    0.19582
 GePol: Number of points with low weight             =     163
 GePol: Fraction of low-weight points (<1% of avg)   =       4.98%
 GePol: Cavity surface area                          =    377.138 Ang**2
 GePol: Cavity volume                                =    417.616 Ang**3
 ------------------------------------------------------------------------------
 Atomic radii for non-electrostatic terms: SMD-CDS.
 ------------------------------------------------------------------------------
 PCM non-electrostatic energy =        -0.0121083418 Hartrees.
 Nuclear repulsion after PCM non-electrostatic terms =     2948.1946069897 Hartrees.
 Leave Link  301 at Tue Jun 11 17:54:38 2024, MaxMem=  8589934592 cpu:               2.2 elap:               0.1
 (Enter /opt/packages/gaussian/g16RevC.01/g16/l302.exe)
 NPDir=0 NMtPBC=     1 NCelOv=     1 NCel=       1 NClECP=     1 NCelD=      1
         NCelK=      1 NCelE2=     1 NClLst=     1 CellRange=     0.0.
 One-electron integrals computed using PRISM.
   1 Symmetry operations used in ECPInt.
 ECPInt:  NShTT=   23220 NPrTT=   88426 LenC2=   20962 LenP2D=   53418.
 LDataN:  DoStor=T MaxTD1= 6 Len=  172
 NBasis=   489 RedAO= T EigKep=  1.76D-04  NBF=   489
 NBsUse=   489 1.00D-06 EigRej= -1.00D+00 NBFU=   489
 Precomputing XC quadrature grid using
 IXCGrd= 4 IRadAn=           5 IRanWt=          -1 IRanGd=           0 AccXCQ= 0.00D+00.
 Generated NRdTot=       0 NPtTot=           0 NUsed=           0 NTot=          32
 NSgBfM=   522   522   522   522   522 MxSgAt=    40 MxSgA2=    40.
 Leave Link  302 at Tue Jun 11 17:54:38 2024, MaxMem=  8589934592 cpu:              14.0 elap:               0.5
 (Enter /opt/packages/gaussian/g16RevC.01/g16/l303.exe)
 DipDrv:  MaxL=1.
 Leave Link  303 at Tue Jun 11 17:54:38 2024, MaxMem=  8589934592 cpu:               1.6 elap:               0.1
 (Enter /opt/packages/gaussian/g16RevC.01/g16/l401.exe)
 ExpMin= 1.08D-01 ExpMax= 6.07D+04 ExpMxC= 2.07D+03 IAcc=3 IRadAn=         5 AccDes= 0.00D+00
 Harris functional with IExCor= 1009 and IRadAn=       5 diagonalized for initial guess.
 HarFok:  IExCor= 1009 AccDes= 0.00D+00 IRadAn=         5 IDoV= 1 UseB2=F ITyADJ=14
 ICtDFT=  3500011 ScaDFX=  1.000000  1.000000  1.000000  1.000000
 FoFCou: FMM=F IPFlag=           0 FMFlag=      100000 FMFlg1=           0
         NFxFlg=           0 DoJE=T BraDBF=F KetDBF=T FulRan=T
         wScrn=  0.000000 ICntrl=       500 IOpCl=  0 I1Cent=   200000004 NGrid=           0
         NMat0=    1 NMatS0=      1 NMatT0=    0 NMatD0=    1 NMtDS0=    0 NMtDT0=    0
 Symmetry not used in FoFCou.
 Harris En= -1919.88481291187    
 JPrj=0 DoOrth=F DoCkMO=F.
 Leave Link  401 at Tue Jun 11 17:54:39 2024, MaxMem=  8589934592 cpu:              33.1 elap:               1.1
 (Enter /opt/packages/gaussian/g16RevC.01/g16/l502.exe)
 Two-electron integral symmetry not used.
 Closed shell SCF:
 Using DIIS extrapolation, IDIIS=  1040.
 NGot=  8589934592 LenX=  8589363726 LenY=  8589088626
 Requested convergence on RMS density matrix=1.00D-08 within 128 cycles.
 Requested convergence on MAX density matrix=1.00D-06.
 Requested convergence on             energy=1.00D-06.
 No special actions if energy rises.
 Fock matrices will be formed incrementally for  20 cycles.

 Cycle   1  Pass 1  IDiag  1:
 FoFJK:  IHMeth= 1 ICntrl=       0 DoSepK=F KAlg= 0 I1Cent=           0 FoldK=F
 IRaf= 830000000 NMat=       1 IRICut=       1 DoRegI=T DoRafI=F ISym2E= 0 IDoP0=0 IntGTp=1.
 FoFCou: FMM=F IPFlag=           0 FMFlag=      100000 FMFlg1=           0
         NFxFlg=           0 DoJE=F BraDBF=F KetDBF=F FulRan=T
         wScrn=  0.000000 ICntrl=         0 IOpCl=  0 I1Cent=           0 NGrid=           0
         NMat0=    1 NMatS0=      1 NMatT0=    0 NMatD0=    1 NMtDS0=    0 NMtDT0=    0
 Symmetry not used in FoFCou.
 Inv3:  Mode=1 IEnd=    32117952.
 Iteration    1 A*A^-1 deviation from unit magnitude is 3.22D-15 for     62.
 Iteration    1 A*A^-1 deviation from orthogonality  is 2.11D-15 for   1869    841.
 Iteration    1 A^-1*A deviation from unit magnitude is 3.11D-15 for    751.
 Iteration    1 A^-1*A deviation from orthogonality  is 2.53D-15 for   1717   1670.
 E= -1920.00007849763    
 DIIS: error= 3.20D-02 at cycle   1 NSaved=   1.
 NSaved= 1 IEnMin= 1 EnMin= -1920.00007849763     IErMin= 1 ErrMin= 3.20D-02
 ErrMax= 3.20D-02  0.00D+00 EMaxC= 1.00D-01 BMatC= 9.31D-01 BMatP= 9.31D-01
 IDIUse=3 WtCom= 6.80D-01 WtEn= 3.20D-01
 Coeff-Com:  0.100D+01
 Coeff-En:   0.100D+01
 Coeff:      0.100D+01
 Gap=     0.284 Goal=   None    Shift=    0.000
 GapD=    0.284 DampG=1.000 DampE=0.500 DampFc=0.5000 IDamp=-1.
 Damping current iteration by 5.00D-01
 RMSDP=4.15D-03 MaxDP=2.90D-01              OVMax= 1.97D-01

 Cycle   2  Pass 1  IDiag  1:
 RMSU=  2.02D-03    CP:  9.71D-01
 E= -1920.25681129309     Delta-E=       -0.256732795468 Rises=F Damp=T
 DIIS: error= 8.95D-03 at cycle   2 NSaved=   2.
 NSaved= 2 IEnMin= 2 EnMin= -1920.25681129309     IErMin= 2 ErrMin= 8.95D-03
 ErrMax= 8.95D-03  0.00D+00 EMaxC= 1.00D-01 BMatC= 1.02D-01 BMatP= 9.31D-01
 IDIUse=3 WtCom= 9.11D-01 WtEn= 8.95D-02
 Coeff-Com:  0.126D+00 0.874D+00
 Coeff-En:   0.237D+00 0.763D+00
 Coeff:      0.136D+00 0.864D+00
 Gap=     0.288 Goal=   None    Shift=    0.000
 RMSDP=1.57D-03 MaxDP=9.61D-02 DE=-2.57D-01 OVMax= 1.40D-01

 Cycle   3  Pass 1  IDiag  1:
 RMSU=  1.50D-03    CP:  9.46D-01  9.59D-01
 E= -1920.67245406506     Delta-E=       -0.415642771963 Rises=F Damp=F
 DIIS: error= 9.09D-03 at cycle   3 NSaved=   3.
 NSaved= 3 IEnMin= 3 EnMin= -1920.67245406506     IErMin= 2 ErrMin= 8.95D-03
 ErrMax= 9.09D-03  0.00D+00 EMaxC= 1.00D-01 BMatC= 5.84D-02 BMatP= 1.02D-01
 IDIUse=3 WtCom= 9.09D-01 WtEn= 9.09D-02
 Coeff-Com: -0.283D-01 0.420D+00 0.608D+00
 Coeff-En:   0.000D+00 0.000D+00 0.100D+01
 Coeff:     -0.257D-01 0.382D+00 0.643D+00
 Gap=     0.230 Goal=   None    Shift=    0.000
 RMSDP=7.07D-04 MaxDP=3.42D-02 DE=-4.16D-01 OVMax= 4.01D-02

 Cycle   4  Pass 1  IDiag  1:
 RMSU=  4.26D-04    CP:  9.52D-01  1.07D+00  6.62D-01
 E= -1920.71894303329     Delta-E=       -0.046488968237 Rises=F Damp=F
 DIIS: error= 2.33D-03 at cycle   4 NSaved=   4.
 NSaved= 4 IEnMin= 4 EnMin= -1920.71894303329     IErMin= 4 ErrMin= 2.33D-03
 ErrMax= 2.33D-03  0.00D+00 EMaxC= 1.00D-01 BMatC= 6.10D-03 BMatP= 5.84D-02
 IDIUse=3 WtCom= 9.77D-01 WtEn= 2.33D-02
 Coeff-Com: -0.184D-01 0.783D-01 0.290D+00 0.651D+00
 Coeff-En:   0.000D+00 0.000D+00 0.370D-01 0.963D+00
 Coeff:     -0.180D-01 0.765D-01 0.284D+00 0.658D+00
 Gap=     0.230 Goal=   None    Shift=    0.000
 RMSDP=2.08D-04 MaxDP=1.46D-02 DE=-4.65D-02 OVMax= 1.43D-02

 Cycle   5  Pass 1  IDiag  1:
 RMSU=  1.05D-04    CP:  9.51D-01  1.04D+00  7.41D-01  7.13D-01
 E= -1920.72425768346     Delta-E=       -0.005314650165 Rises=F Damp=F
 DIIS: error= 6.37D-04 at cycle   5 NSaved=   5.
 NSaved= 5 IEnMin= 5 EnMin= -1920.72425768346     IErMin= 5 ErrMin= 6.37D-04
 ErrMax= 6.37D-04  0.00D+00 EMaxC= 1.00D-01 BMatC= 3.48D-04 BMatP= 6.10D-03
 IDIUse=3 WtCom= 9.94D-01 WtEn= 6.37D-03
 Coeff-Com: -0.630D-02 0.101D-01 0.790D-01 0.282D+00 0.635D+00
 Coeff-En:   0.000D+00 0.000D+00 0.000D+00 0.000D+00 0.100D+01
 Coeff:     -0.626D-02 0.100D-01 0.785D-01 0.280D+00 0.637D+00
 Gap=     0.229 Goal=   None    Shift=    0.000
 RMSDP=5.00D-05 MaxDP=2.83D-03 DE=-5.31D-03 OVMax= 4.59D-03

 Cycle   6  Pass 1  IDiag  1:
 RMSU=  3.40D-05    CP:  9.51D-01  1.05D+00  7.37D-01  7.47D-01  7.52D-01
 E= -1920.72458493285     Delta-E=       -0.000327249392 Rises=F Damp=F
 DIIS: error= 1.38D-04 at cycle   6 NSaved=   6.
 NSaved= 6 IEnMin= 6 EnMin= -1920.72458493285     IErMin= 6 ErrMin= 1.38D-04
 ErrMax= 1.38D-04  0.00D+00 EMaxC= 1.00D-01 BMatC= 2.46D-05 BMatP= 3.48D-04
 IDIUse=3 WtCom= 9.99D-01 WtEn= 1.38D-03
 Coeff-Com: -0.139D-02-0.856D-03 0.106D-01 0.640D-01 0.261D+00 0.666D+00
 Coeff-En:   0.000D+00 0.000D+00 0.000D+00 0.000D+00 0.000D+00 0.100D+01
 Coeff:     -0.139D-02-0.855D-03 0.106D-01 0.639D-01 0.261D+00 0.667D+00
 Gap=     0.229 Goal=   None    Shift=    0.000
 RMSDP=1.71D-05 MaxDP=6.88D-04 DE=-3.27D-04 OVMax= 1.69D-03

 Cycle   7  Pass 1  IDiag  1:
 RMSU=  1.30D-05    CP:  9.51D-01  1.05D+00  7.40D-01  7.49D-01  8.08D-01
                    CP:  7.67D-01
 E= -1920.72460693591     Delta-E=       -0.000022003060 Rises=F Damp=F
 DIIS: error= 6.16D-05 at cycle   7 NSaved=   7.
 NSaved= 7 IEnMin= 7 EnMin= -1920.72460693591     IErMin= 7 ErrMin= 6.16D-05
 ErrMax= 6.16D-05  0.00D+00 EMaxC= 1.00D-01 BMatC= 4.68D-06 BMatP= 2.46D-05
 IDIUse=1 WtCom= 1.00D+00 WtEn= 0.00D+00
 Coeff-Com: -0.162D-03-0.133D-02-0.341D-02 0.174D-02 0.685D-01 0.345D+00
 Coeff-Com:  0.589D+00
 Coeff:     -0.162D-03-0.133D-02-0.341D-02 0.174D-02 0.685D-01 0.345D+00
 Coeff:      0.589D+00
 Gap=     0.229 Goal=   None    Shift=    0.000
 RMSDP=7.30D-06 MaxDP=2.92D-04 DE=-2.20D-05 OVMax= 5.70D-04

 Cycle   8  Pass 1  IDiag  1:
 RMSU=  5.33D-06    CP:  9.51D-01  1.05D+00  7.39D-01  7.54D-01  8.09D-01
                    CP:  8.55D-01  7.61D-01
 E= -1920.72461164095     Delta-E=       -0.000004705035 Rises=F Damp=F
 DIIS: error= 1.97D-05 at cycle   8 NSaved=   8.
 NSaved= 8 IEnMin= 8 EnMin= -1920.72461164095     IErMin= 8 ErrMin= 1.97D-05
 ErrMax= 1.97D-05  0.00D+00 EMaxC= 1.00D-01 BMatC= 3.89D-07 BMatP= 4.68D-06
 IDIUse=1 WtCom= 1.00D+00 WtEn= 0.00D+00
 Coeff-Com:  0.113D-03-0.348D-03-0.376D-02-0.112D-01-0.159D-01 0.249D-01
 Coeff-Com:  0.225D+00 0.781D+00
 Coeff:      0.113D-03-0.348D-03-0.376D-02-0.112D-01-0.159D-01 0.249D-01
 Coeff:      0.225D+00 0.781D+00
 Gap=     0.229 Goal=   None    Shift=    0.000
 RMSDP=2.56D-06 MaxDP=8.88D-05 DE=-4.71D-06 OVMax= 2.60D-04

 Cycle   9  Pass 1  IDiag  1:
 RMSU=  1.75D-06    CP:  9.51D-01  1.05D+00  7.39D-01  7.53D-01  8.19D-01
                    CP:  8.77D-01  8.35D-01  8.50D-01
 E= -1920.72461219910     Delta-E=       -0.000000558156 Rises=F Damp=F
 DIIS: error= 7.28D-06 at cycle   9 NSaved=   9.
 NSaved= 9 IEnMin= 9 EnMin= -1920.72461219910     IErMin= 9 ErrMin= 7.28D-06
 ErrMax= 7.28D-06  0.00D+00 EMaxC= 1.00D-01 BMatC= 5.20D-08 BMatP= 3.89D-07
 IDIUse=1 WtCom= 1.00D+00 WtEn= 0.00D+00
 Coeff-Com:  0.463D-04 0.634D-04-0.126D-02-0.516D-02-0.140D-01-0.247D-01
 Coeff-Com:  0.265D-01 0.325D+00 0.693D+00
 Coeff:      0.463D-04 0.634D-04-0.126D-02-0.516D-02-0.140D-01-0.247D-01
 Coeff:      0.265D-01 0.325D+00 0.693D+00
 Gap=     0.229 Goal=   None    Shift=    0.000
 RMSDP=8.19D-07 MaxDP=3.07D-05 DE=-5.58D-07 OVMax= 1.03D-04

 Cycle  10  Pass 1  IDiag  1:
 RMSU=  5.40D-07    CP:  9.51D-01  1.05D+00  7.39D-01  7.53D-01  8.20D-01
                    CP:  8.82D-01  8.49D-01  9.50D-01  9.83D-01
 E= -1920.72461226977     Delta-E=       -0.000000070667 Rises=F Damp=F
 DIIS: error= 1.87D-06 at cycle  10 NSaved=  10.
 NSaved=10 IEnMin=10 EnMin= -1920.72461226977     IErMin=10 ErrMin= 1.87D-06
 ErrMax= 1.87D-06  0.00D+00 EMaxC= 1.00D-01 BMatC= 3.64D-09 BMatP= 5.20D-08
 IDIUse=1 WtCom= 1.00D+00 WtEn= 0.00D+00
 Coeff-Com:  0.108D-05 0.484D-04-0.175D-04-0.402D-03-0.271D-02-0.912D-02
 Coeff-Com: -0.158D-01 0.196D-01 0.191D+00 0.818D+00
 Coeff:      0.108D-05 0.484D-04-0.175D-04-0.402D-03-0.271D-02-0.912D-02
 Coeff:     -0.158D-01 0.196D-01 0.191D+00 0.818D+00
 Gap=     0.229 Goal=   None    Shift=    0.000
 RMSDP=2.73D-07 MaxDP=8.95D-06 DE=-7.07D-08 OVMax= 3.73D-05

 Cycle  11  Pass 1  IDiag  1:
 RMSU=  1.90D-07    CP:  9.51D-01  1.05D+00  7.39D-01  7.53D-01  8.20D-01
                    CP:  8.84D-01  8.53D-01  9.61D-01  1.08D+00  1.00D+00
 E= -1920.72461227696     Delta-E=       -0.000000007195 Rises=F Damp=F
 DIIS: error= 1.05D-06 at cycle  11 NSaved=  11.
 NSaved=11 IEnMin=11 EnMin= -1920.72461227696     IErMin=11 ErrMin= 1.05D-06
 ErrMax= 1.05D-06  0.00D+00 EMaxC= 1.00D-01 BMatC= 1.03D-09 BMatP= 3.64D-09
 IDIUse=1 WtCom= 1.00D+00 WtEn= 0.00D+00
 Coeff-Com: -0.676D-05 0.723D-05 0.212D-03 0.760D-03 0.126D-02 0.930D-03
 Coeff-Com: -0.117D-01-0.475D-01-0.485D-01 0.372D+00 0.733D+00
 Coeff:     -0.676D-05 0.723D-05 0.212D-03 0.760D-03 0.126D-02 0.930D-03
 Coeff:     -0.117D-01-0.475D-01-0.485D-01 0.372D+00 0.733D+00
 Gap=     0.229 Goal=   None    Shift=    0.000
 RMSDP=1.36D-07 MaxDP=4.92D-06 DE=-7.20D-09 OVMax= 1.58D-05

 Cycle  12  Pass 1  IDiag  1:
 RMSU=  7.07D-08    CP:  9.51D-01  1.05D+00  7.39D-01  7.54D-01  8.20D-01
                    CP:  8.84D-01  8.53D-01  9.69D-01  1.11D+00  1.14D+00
                    CP:  8.72D-01
 E= -1920.72461227865     Delta-E=       -0.000000001688 Rises=F Damp=F
 DIIS: error= 2.30D-07 at cycle  12 NSaved=  12.
 NSaved=12 IEnMin=12 EnMin= -1920.72461227865     IErMin=12 ErrMin= 2.30D-07
 ErrMax= 2.30D-07  0.00D+00 EMaxC= 1.00D-01 BMatC= 7.87D-11 BMatP= 1.03D-09
 IDIUse=1 WtCom= 1.00D+00 WtEn= 0.00D+00
 Coeff-Com: -0.164D-05-0.229D-05 0.785D-04 0.305D-03 0.637D-03 0.115D-02
 Coeff-Com: -0.332D-02-0.181D-01-0.353D-01 0.675D-01 0.261D+00 0.726D+00
 Coeff:     -0.164D-05-0.229D-05 0.785D-04 0.305D-03 0.637D-03 0.115D-02
 Coeff:     -0.332D-02-0.181D-01-0.353D-01 0.675D-01 0.261D+00 0.726D+00
 Gap=     0.229 Goal=   None    Shift=    0.000
 RMSDP=3.83D-08 MaxDP=1.45D-06 DE=-1.69D-09 OVMax= 5.20D-06

 Cycle  13  Pass 1  IDiag  1:
 RMSU=  2.40D-08    CP:  9.51D-01  1.05D+00  7.39D-01  7.54D-01  8.20D-01
                    CP:  8.84D-01  8.53D-01  9.71D-01  1.12D+00  1.17D+00
                    CP:  9.52D-01  1.04D+00
 E= -1920.72461227877     Delta-E=       -0.000000000115 Rises=F Damp=F
 DIIS: error= 1.35D-07 at cycle  13 NSaved=  13.
 NSaved=13 IEnMin=13 EnMin= -1920.72461227877     IErMin=13 ErrMin= 1.35D-07
 ErrMax= 1.35D-07  0.00D+00 EMaxC= 1.00D-01 BMatC= 1.95D-11 BMatP= 7.87D-11
 IDIUse=1 WtCom= 1.00D+00 WtEn= 0.00D+00
 Coeff-Com:  0.520D-06-0.273D-05 0.527D-05 0.276D-04 0.103D-03 0.449D-03
 Coeff-Com:  0.111D-03-0.113D-02-0.949D-02-0.271D-01 0.383D-02 0.349D+00
 Coeff-Com:  0.684D+00
 Coeff:      0.520D-06-0.273D-05 0.527D-05 0.276D-04 0.103D-03 0.449D-03
 Coeff:      0.111D-03-0.113D-02-0.949D-02-0.271D-01 0.383D-02 0.349D+00
 Coeff:      0.684D+00
 Gap=     0.229 Goal=   None    Shift=    0.000
 RMSDP=1.69D-08 MaxDP=5.88D-07 DE=-1.15D-10 OVMax= 2.67D-06

 Cycle  14  Pass 1  IDiag  1:
 RMSU=  1.06D-08    CP:  9.51D-01  1.05D+00  7.39D-01  7.54D-01  8.20D-01
                    CP:  8.84D-01  8.53D-01  9.71D-01  1.12D+00  1.18D+00
                    CP:  9.86D-01  1.14D+00  9.36D-01
 E= -1920.72461227878     Delta-E=       -0.000000000013 Rises=F Damp=F
 DIIS: error= 5.15D-08 at cycle  14 NSaved=  14.
 NSaved=14 IEnMin=14 EnMin= -1920.72461227878     IErMin=14 ErrMin= 5.15D-08
 ErrMax= 5.15D-08  0.00D+00 EMaxC= 1.00D-01 BMatC= 2.15D-12 BMatP= 1.95D-11
 IDIUse=1 WtCom= 1.00D+00 WtEn= 0.00D+00
 Coeff-Com:  0.419D-06-0.512D-06-0.112D-04-0.415D-04-0.740D-04-0.209D-04
 Coeff-Com:  0.542D-03 0.281D-02 0.355D-02-0.185D-01-0.458D-01-0.205D-01
 Coeff-Com:  0.233D+00 0.845D+00
 Coeff:      0.419D-06-0.512D-06-0.112D-04-0.415D-04-0.740D-04-0.209D-04
 Coeff:      0.542D-03 0.281D-02 0.355D-02-0.185D-01-0.458D-01-0.205D-01
 Coeff:      0.233D+00 0.845D+00
 Gap=     0.229 Goal=   None    Shift=    0.000
 RMSDP=7.98D-09 MaxDP=2.08D-07 DE=-1.32D-11 OVMax= 1.41D-06

 Error on total polarization charges =  0.03322
 SCF Done:  E(RM062X) =  -1920.72461228     A.U. after   14 cycles
            NFock= 14  Conv=0.80D-08     -V/T= 2.0064
 KE= 1.908566027202D+03 PE=-1.040232201785D+04 EE= 3.624836771376D+03
 SMD-CDS (non-electrostatic) energy       (kcal/mol) =      -7.60
 (included in total energy above)
 Leave Link  502 at Tue Jun 11 17:55:57 2024, MaxMem=  8589934592 cpu:            2417.6 elap:              77.3
 (Enter /opt/packages/gaussian/g16RevC.01/g16/l508.exe)
 QCSCF skips out because SCF is already converged.
 Leave Link  508 at Tue Jun 11 17:55:57 2024, MaxMem=  8589934592 cpu:               0.1 elap:               0.0
 (Enter /opt/packages/gaussian/g16RevC.01/g16/l601.exe)
 Copying SCF densities to generalized density rwf, IOpCl= 0 IROHF=0.

 **********************************************************************

            Population analysis using the SCF Density.

 **********************************************************************

 Alpha  occ. eigenvalues --  -90.12436 -90.12421 -19.64551 -19.64287 -19.64160
 Alpha  occ. eigenvalues --  -19.64050 -14.81490 -10.60900 -10.60729 -10.60714
 Alpha  occ. eigenvalues --  -10.60619 -10.58765 -10.58729 -10.58367 -10.58304
 Alpha  occ. eigenvalues --  -10.58090 -10.58064 -10.57618 -10.57592 -10.57000
 Alpha  occ. eigenvalues --  -10.56970 -10.56896 -10.56863 -10.56809 -10.56791
 Alpha  occ. eigenvalues --  -10.56764 -10.56748  -8.45171  -8.45157  -6.37410
 Alpha  occ. eigenvalues --   -6.37396  -6.37218  -6.37211  -6.37177  -6.37171
 Alpha  occ. eigenvalues --   -1.24880  -1.23523  -1.12528  -1.12131  -1.02824
 Alpha  occ. eigenvalues --   -1.00696  -0.98793  -0.94604  -0.93716  -0.90597
 Alpha  occ. eigenvalues --   -0.87107  -0.86006  -0.85489  -0.83423  -0.82015
 Alpha  occ. eigenvalues --   -0.77814  -0.76934  -0.72704  -0.71863  -0.70409
 Alpha  occ. eigenvalues --   -0.70291  -0.68010  -0.66565  -0.63798  -0.61833
 Alpha  occ. eigenvalues --   -0.61315  -0.59835  -0.59527  -0.59359  -0.58224
 Alpha  occ. eigenvalues --   -0.57695  -0.55154  -0.54514  -0.54034  -0.53770
 Alpha  occ. eigenvalues --   -0.52795  -0.52027  -0.51382  -0.51030  -0.50113
 Alpha  occ. eigenvalues --   -0.49431  -0.49171  -0.48491  -0.47868  -0.46703
 Alpha  occ. eigenvalues --   -0.46452  -0.45540  -0.44928  -0.43120  -0.42737
 Alpha  occ. eigenvalues --   -0.42587  -0.42169  -0.41554  -0.41366  -0.41160
 Alpha  occ. eigenvalues --   -0.40441  -0.40065  -0.39969  -0.38970  -0.38530
 Alpha  occ. eigenvalues --   -0.36431  -0.36081  -0.35649  -0.32009  -0.31650
 Alpha  occ. eigenvalues --   -0.28646  -0.28218
 Alpha virt. eigenvalues --   -0.05273  -0.03582  -0.01503  -0.00488   0.03612
 Alpha virt. eigenvalues --    0.04583   0.07430   0.08299   0.09221   0.10066
 Alpha virt. eigenvalues --    0.10447   0.11209   0.11719   0.12386   0.12701
 Alpha virt. eigenvalues --    0.13184   0.13326   0.15271   0.16050   0.16231
 Alpha virt. eigenvalues --    0.17313   0.17342   0.17765   0.18505   0.19118
 Alpha virt. eigenvalues --    0.19260   0.20720   0.21356   0.21596   0.22746
 Alpha virt. eigenvalues --    0.23045   0.25573   0.27276   0.27697   0.28311
 Alpha virt. eigenvalues --    0.28736   0.29290   0.29545   0.30680   0.30914
 Alpha virt. eigenvalues --    0.31500   0.31868   0.32437   0.32565   0.33214
 Alpha virt. eigenvalues --    0.33972   0.34256   0.34650   0.35330   0.37092
 Alpha virt. eigenvalues --    0.37714   0.38162   0.39026   0.39161   0.39586
 Alpha virt. eigenvalues --    0.40771   0.41509   0.41993   0.42617   0.43686
 Alpha virt. eigenvalues --    0.44652   0.45054   0.45827   0.46204   0.47119
 Alpha virt. eigenvalues --    0.47962   0.48345   0.49645   0.49843   0.50530
 Alpha virt. eigenvalues --    0.51065   0.51481   0.51613   0.51901   0.52717
 Alpha virt. eigenvalues --    0.53036   0.53408   0.53687   0.54385   0.54815
 Alpha virt. eigenvalues --    0.55467   0.56391   0.57701   0.58165   0.58624
 Alpha virt. eigenvalues --    0.59663   0.61167   0.61374   0.61932   0.62886
 Alpha virt. eigenvalues --    0.63637   0.64327   0.64615   0.65281   0.66070
 Alpha virt. eigenvalues --    0.67281   0.67533   0.68637   0.68994   0.69399
 Alpha virt. eigenvalues --    0.70139   0.70296   0.70801   0.71100   0.71535
 Alpha virt. eigenvalues --    0.71927   0.72169   0.72705   0.73217   0.73696
 Alpha virt. eigenvalues --    0.74317   0.74596   0.75129   0.75499   0.75706
 Alpha virt. eigenvalues --    0.76333   0.76720   0.77298   0.77759   0.79025
 Alpha virt. eigenvalues --    0.79262   0.80081   0.80191   0.80941   0.82749
 Alpha virt. eigenvalues --    0.83127   0.84383   0.84630   0.85204   0.86048
 Alpha virt. eigenvalues --    0.86548   0.86952   0.87339   0.87722   0.88119
 Alpha virt. eigenvalues --    0.89494   0.90400   0.91572   0.91902   0.92834
 Alpha virt. eigenvalues --    0.95152   0.97580   0.98555   0.99123   1.00294
 Alpha virt. eigenvalues --    1.00600   1.01386   1.02375   1.02777   1.05748
 Alpha virt. eigenvalues --    1.08135   1.08514   1.10970   1.11902   1.13052
 Alpha virt. eigenvalues --    1.13645   1.13981   1.14827   1.16605   1.17040
 Alpha virt. eigenvalues --    1.18029   1.18662   1.19461   1.20622   1.22592
 Alpha virt. eigenvalues --    1.23687   1.24375   1.24733   1.25258   1.25872
 Alpha virt. eigenvalues --    1.27573   1.27865   1.27947   1.28686   1.29147
 Alpha virt. eigenvalues --    1.30087   1.30338   1.30545   1.31596   1.32018
 Alpha virt. eigenvalues --    1.32613   1.32848   1.33562   1.34237   1.34916
 Alpha virt. eigenvalues --    1.35312   1.36373   1.37252   1.37875   1.38243
 Alpha virt. eigenvalues --    1.40258   1.41648   1.42622   1.44122   1.45059
 Alpha virt. eigenvalues --    1.47562   1.49550   1.51366   1.52074   1.52241
 Alpha virt. eigenvalues --    1.52744   1.54573   1.55691   1.55888   1.57101
 Alpha virt. eigenvalues --    1.58245   1.59907   1.61299   1.63292   1.64599
 Alpha virt. eigenvalues --    1.66608   1.67580   1.68059   1.69267   1.69355
 Alpha virt. eigenvalues --    1.69699   1.70300   1.71200   1.71440   1.72059
 Alpha virt. eigenvalues --    1.72221   1.73901   1.74294   1.75244   1.75782
 Alpha virt. eigenvalues --    1.75881   1.76072   1.76200   1.77367   1.77527
 Alpha virt. eigenvalues --    1.77813   1.78440   1.78670   1.79206   1.79853
 Alpha virt. eigenvalues --    1.80305   1.80647   1.81183   1.81683   1.82512
 Alpha virt. eigenvalues --    1.82650   1.84077   1.85059   1.86373   1.86792
 Alpha virt. eigenvalues --    1.87557   1.88398   1.89675   1.92610   1.93353
 Alpha virt. eigenvalues --    1.94178   1.95908   1.96452   1.97190   1.97989
 Alpha virt. eigenvalues --    1.98052   1.98732   1.99283   1.99846   2.00510
 Alpha virt. eigenvalues --    2.01267   2.03281   2.03709   2.04123   2.04300
 Alpha virt. eigenvalues --    2.05002   2.06680   2.07072   2.08001   2.09123
 Alpha virt. eigenvalues --    2.10374   2.12084   2.14136   2.14338   2.14914
 Alpha virt. eigenvalues --    2.15523   2.15700   2.16076   2.16641   2.17469
 Alpha virt. eigenvalues --    2.18145   2.18443   2.20942   2.21762   2.22146
 Alpha virt. eigenvalues --    2.23356   2.25343   2.26426   2.27125   2.29694
 Alpha virt. eigenvalues --    2.29950   2.30157   2.31850   2.32674   2.32850
 Alpha virt. eigenvalues --    2.34126   2.35033   2.36167   2.37124   2.38464
 Alpha virt. eigenvalues --    2.38906   2.40504   2.41413   2.41610   2.44206
 Alpha virt. eigenvalues --    2.47158   2.47873   2.51282   2.52622   2.53495
 Alpha virt. eigenvalues --    2.55681   2.58248   2.58766   2.60392   2.60670
 Alpha virt. eigenvalues --    2.62603   2.62828   2.63444   2.64122   2.66027
 Alpha virt. eigenvalues --    2.66224   2.67755   2.68040   2.68726   2.69758
 Alpha virt. eigenvalues --    2.71037   2.72564   2.74175   2.75107   2.75277
 Alpha virt. eigenvalues --    2.75617   2.76629   2.77184   2.77863   2.78664
 Alpha virt. eigenvalues --    2.79468   2.79986   2.80679   2.81936   2.83640
 Alpha virt. eigenvalues --    2.84300   2.85568   2.86346   2.86964   2.90111
 Alpha virt. eigenvalues --    2.90724   2.92413   2.94100   2.94940   2.96200
 Alpha virt. eigenvalues --    2.96440   2.97359   3.01392   3.05600   3.07074
 Alpha virt. eigenvalues --    3.09349   3.12901   3.13979   3.14270   3.14682
 Alpha virt. eigenvalues --    3.18837   3.19882   3.21496   3.24308   3.30732
 Alpha virt. eigenvalues --    3.34987   3.36513   3.38016   3.42058   3.48923
 Alpha virt. eigenvalues --    3.51637   3.53849   3.54053   3.55965   3.57165
 Alpha virt. eigenvalues --    3.58868   3.58889   3.61278   3.63532   9.10126
 Alpha virt. eigenvalues --    9.10990   9.15586   9.21726   9.25401   9.27698
 Alpha virt. eigenvalues --   19.04181  19.16662
          Condensed to atoms (all electrons):
               1          2          3          4          5          6
     1  C    5.115026   0.316067   0.094563  -0.148202   0.105963   0.187621
     2  C    0.316067   5.179635   0.291049  -0.004909  -0.132606   0.093081
     3  C    0.094563   0.291049   5.390159   0.113089   0.019961  -0.140459
     4  C   -0.148202  -0.004909   0.113089   5.558709   0.274625   0.098609
     5  C    0.105963  -0.132606   0.019961   0.274625   5.197125   0.274078
     6  C    0.187621   0.093081  -0.140459   0.098609   0.274078   5.152606
     7  H    0.456220  -0.063955   0.015244  -0.001166   0.013308  -0.074497
     8  H   -0.068338   0.451320  -0.046195   0.016061  -0.002179   0.013545
     9  C    0.019879  -0.118755   0.295840  -0.002603   0.018776  -0.001850
    10  C   -0.001983   0.018344   0.019139   0.226185  -0.119935   0.016846
    11  H    0.013290  -0.001959   0.015309  -0.066895   0.463886  -0.070682
    12  H   -0.071722   0.013836  -0.001264   0.014359  -0.069003   0.458105
    13  C    0.000256  -0.002850  -0.103569   0.109705   0.014987  -0.001304
    14  C   -0.000616   0.021998   0.069024  -0.172086  -0.000635   0.000123
    15  H   -0.000048  -0.000149   0.014042  -0.070424  -0.017391   0.000835
    16  C   -0.000639  -0.026112  -0.065244   0.026651  -0.000067   0.000036
    17  C    0.000119  -0.002018   0.001865  -0.000156   0.000013  -0.000011
    18  C    0.000103  -0.002204  -0.015477  -0.000123  -0.000033  -0.000047
    19  C   -0.000006   0.000064  -0.000112  -0.000006   0.000000   0.000000
    20  C   -0.000023  -0.000285  -0.000049  -0.000001  -0.000001   0.000001
    21  C   -0.000085   0.003135  -0.002486  -0.000328   0.000007   0.000006
[...]
 0022686,-0.00037652,0.00134083,0.00091988,-0.00002579,-0.00014662,-0.0
 0011834,-0.00005430,0.00011711,-0.00022706,-0.00030377,-0.00003627,0.0
 0002044,0.00005609,0.00026169,-0.00017048,-0.00029243,0.00009040,-0.00
 021017,-0.00020593,0.00011736,-0.00001421,-0.00006874,0.00005581,-0.00
 007996,-0.00009852,0.00002560,-0.00002919,-0.00003465,0.00154186,0.004
 08797,0.00578246,-0.00029479,0.00013522,-0.00110866,-0.00185349,-0.000
 44028,-0.00153146,-0.21308408,-0.55203817,-0.12547260,-0.01489255,-0.0
 1479210,-0.01295052,0.24328242,0.57925122,-0.00001173,-0.00006621,0.00
 006411,-0.00001051,-0.00004298,0.00007917,-0.00021407,-0.00019757,0.00
 021251,0.00009521,-0.00012744,0.00002762,0.00002574,-0.00001009,0.0000
 2718,0.00003368,-0.00006178,0.00003471,0.00001143,-0.00003142,-0.00000
 375,-0.00004432,0.00003532,-0.00008303,0.00033418,0.00016150,0.0000316
 0,-0.00018057,0.00003180,0.00002790,-0.00001418,-0.00003192,0.00000298
 ,0.00000039,-0.00002130,-0.00000049,0.00006937,-0.00036618,0.00014189,
 0.00039716,-0.00047833,-0.00020728,-0.00001020,-0.00006309,0.00002115,
 0.00528116,0.00000669,-0.00134628,-0.00960523,-0.01915724,0.00193765,-
 0.00089144,-0.00106514,-0.00091892,0.00033156,-0.00079905,-0.00064146,
 -0.00018701,-0.00040313,-0.00019617,0.00048195,0.00034074,-0.00035681,
 -0.00032732,-0.00006121,0.00040480,-0.00018053,-0.00004430,0.00009723,
 0.00012782,-0.00024988,-0.00019540,-0.00005547,-0.00000062,0.00001539,
 0.00009426,-0.00003399,-0.00008155,-0.00006086,-0.00020239,-0.00012986
 ,0.00005453,0.00001070,-0.00004888,0.00005229,-0.00006647,-0.00003262,
 0.00001203,-0.00002574,-0.00003210,0.00066543,0.00842362,0.00966760,0.
 00009156,-0.00079132,-0.00170916,-0.00362736,-0.00132803,-0.00296848,-
 0.06164466,-0.14129918,-0.12726643,0.01424202,0.03312722,0.01452955,0.
 07339396,0.15360405,0.12348150,0.00010369,-0.00010518,0.00006772,-0.00
 033988,-0.00027470,0.00022492,0.00176881,0.00011423,0.00025346,-0.0002
 6078,0.00021619,0.00001706,0.00032264,-0.00002617,-0.00005840,0.000033
 86,-0.00011480,0.00008353,0.00001086,-0.00005358,0.00000339,0.00017306
 ,-0.00015681,0.00007527,-0.00415716,-0.00211428,-0.00000617,0.00051085
 ,-0.00033717,0.00006333,-0.00001380,0.00001686,-0.00000944,0.00002023,
 0.00000373,0.00000166,0.00078424,0.00027955,-0.00010357,0.00722976,-0.
 00121195,-0.00036256,-0.00000176,-0.00010286,0.00005578,-0.00419707,-0
 .00312086,-0.00144738,-0.01196748,0.01093750,-0.01190921,0.00055045,0.
 00054140,0.00196363,0.00034844,0.00400756,0.00050517,0.00023798,0.0001
 5316,-0.00023628,-0.00067897,-0.00070323,0.00021646,-0.00005450,-0.000
 33943,0.00149483,0.00035119,0.00067798,0.00005460,-0.00050624,0.000139
 71,0.00023123,0.00006477,0.00008310,0.00005762,-0.00026047,0.00014753,
 0.00035506,-0.00024375,0.00031758,0.00043345,-0.00011510,-0.00002780,0
 .00005208,-0.00004302,0.00012192,0.00006596,0.00000517,0.00003208,0.00
 005375,-0.06601231,0.01328775,-0.02911795,0.01286538,-0.00305925,0.001
 69678,-0.02703798,-0.02051034,-0.03555932,-0.10280189,0.00366488,-0.04
 574103,0.00248730,0.00517953,-0.00068083,-0.02016388,-0.00291178,-0.02
 164982,0.23820178,-0.00021080,-0.00041314,0.00006881,-0.00069747,-0.00
 000812,0.00015669,0.00003145,-0.00002800,0.00206379,0.00014746,0.00028
 522,-0.00042392,0.00062553,-0.00030328,-0.00006435,0.00001476,-0.00039
 108,0.00024097,0.00006375,-0.00008817,0.00003498,0.00000327,0.00006484
 ,0.00000202,-0.00384056,0.00112009,-0.00071050,-0.00084945,-0.00040635
 ,0.00186443,-0.00007425,-0.00008544,0.00005421,0.00002306,-0.00004194,
 0.00004431,0.00403219,-0.00363010,-0.00081163,-0.01217006,-0.01829577,
 -0.01802296,0.00001510,-0.00036756,0.00041184,-0.00169415,0.00031271,-
 0.00016256,0.01520514,0.00572886,0.00641693,0.00056625,0.00112608,-0.0
 0014225,0.00058487,-0.00370811,-0.00064776,0.00002954,0.00016174,0.000
 36724,0.00004659,-0.00006747,-0.00003734,0.00103681,0.00067051,-0.0009
 0111,0.00004932,-0.00030358,-0.00022102,-0.00000381,0.00003128,0.00006
 491,-0.00002762,0.00014159,0.00014555,0.00007872,-0.00006984,-0.000340
 30,0.00025487,0.00008982,-0.00007639,0.00006704,-0.00000448,-0.0000402
 5,-0.00001159,-0.00002737,-0.00002539,0.00002414,-0.00001622,-0.000023
 15,-0.01312507,-0.12939594,-0.05222716,-0.00389409,0.00878100,-0.00721
 548,0.00678034,0.01493987,0.00367693,0.05132419,-0.11240936,0.03383469
 ,0.01407754,0.00103007,0.02176711,-0.03430746,0.00137645,-0.02441410,-
 0.00162736,0.63651034,0.00009904,-0.00005347,0.00010191,-0.00013033,-0
 .00024152,0.00025809,0.00082896,-0.00028361,-0.00051253,-0.00007204,-0
 .00004518,0.00012636,0.00013437,0.00006755,0.00006380,0.00004649,-0.00
 009667,0.00005207,0.00001004,-0.00004907,-0.00000415,0.00004923,-0.000
 06181,-0.00004325,-0.00061778,-0.00182375,0.00019257,-0.00035093,-0.00
 031580,-0.00056093,-0.00001186,-0.00002075,-0.00001978,0.00001133,-0.0
 0001786,-0.00000811,0.00055127,-0.00132362,0.00078313,0.00241952,0.007
 91734,0.00730287,0.00002275,-0.00019393,0.00004860,-0.00196955,0.00056
 546,0.00122730,0.00492366,-0.00348724,0.00305312,0.00065958,0.00056265
 ,-0.00001053,-0.00067127,0.00133199,0.00124504,-0.00017859,-0.00020992
 ,0.00003511,-0.00024646,0.00006987,0.00031842,-0.00049687,0.00004398,-
 0.00001193,0.00009305,0.00012595,0.00006584,0.00009131,0.00009266,0.00
 008958,-0.00001341,0.00010334,-0.00002320,-0.00013215,0.00012226,0.000
 14109,-0.00007631,0.00002921,0.00008545,-0.00002386,0.00000428,-0.0000
 1420,-0.00003250,0.00004345,0.00000841,-0.00000393,0.00001939,-0.00000
 232,-0.01859995,-0.00225717,-0.10732163,-0.00761085,-0.03106543,-0.035
 61613,-0.02264095,-0.01367623,-0.01212796,-0.04696420,-0.00162763,-0.0
 9002655,-0.02320582,0.02223017,-0.01454414,-0.03076531,-0.00356801,-0.
 01188993,0.16701119,-0.06379879,0.31414445,-0.00010093,-0.00014654,0.0
 0003989,-0.00021986,0.00008453,0.00004007,0.00008297,-0.00038561,0.000
 31438,0.00023537,-0.00003481,-0.00001854,0.00009178,0.00001946,-0.0000
 1920,0.00008090,-0.00008523,0.00005204,0.00001103,-0.00001785,0.000001
 61,0.00001436,0.00000054,0.00001370,-0.00074888,0.00035234,-0.00059524
 ,-0.00002674,0.00015307,0.00022101,-0.00001276,-0.00001660,0.00000926,
 0.00000573,-0.00000311,0.00000772,0.00035889,-0.00032868,0.00006714,0.
 00011248,-0.00245559,-0.00248460,-0.00001438,-0.00006638,0.00000236,-0
 .00053639,-0.00044766,0.00025373,-0.00387631,-0.00100770,-0.00150268,0
 .00041815,-0.00020045,-0.00000996,0.00001366,0.00095148,0.00014810,-0.
 00013821,-0.00028067,-0.00014818,-0.00003140,0.00010513,0.00004607,-0.
 00027712,0.00003735,0.00049564,-0.00002507,0.00013027,0.00005760,0.000
 08136,-0.00001253,-0.00005411,-0.00000467,0.00002762,0.00002055,-0.000
 02767,0.00002647,0.00009034,-0.00009862,-0.00007273,0.00001439,-0.0000
 0136,-0.00000058,-0.00000197,0.00000155,0.00000124,0.00000212,0.000002
 37,0.00000021,-0.00000386,0.00682565,-0.00783052,0.00865742,-0.0010171
 4,-0.00099493,-0.00029927,-0.00186023,0.00287590,-0.00001431,-0.000304
 54,0.02609978,-0.00590992,-0.00024163,0.00050927,-0.00284458,0.0005636
 6,-0.00150744,0.00244578,-0.02815231,-0.02304181,-0.02329720,0.0289611
 6,0.00002546,0.00006934,-0.00004248,0.00007239,0.00000546,-0.00000227,
 0.00008897,0.00018558,0.00014236,-0.00018052,0.00011705,-0.00007397,0.
 00000060,-0.00008583,0.00002790,-0.00008290,0.00003709,-0.00001926,-0.
 00000620,0.00000834,-0.00000590,0.00001835,-0.00001860,0.00000909,-0.0
 0021123,-0.00012740,-0.00000073,0.00004709,-0.00019118,0.00014222,0.00
 000800,0.00001246,-0.00000654,-0.00000214,0.00001032,-0.00000542,0.000
 20751,0.00015170,-0.00034973,-0.00066813,0.00001255,-0.00078915,0.0000
 1490,0.00002708,0.00002111,-0.00004699,-0.00036560,-0.00031729,-0.0006
 3207,0.00048919,-0.00038641,-0.00006043,0.00007576,0.00008019,-0.00003
 401,0.00038175,0.00025836,0.00005124,0.00009096,0.00003008,-0.00009392
 ,-0.00007159,0.00002801,-0.00000963,-0.00011859,0.00003921,0.00006325,
 0.00004687,-0.00000577,-0.00006924,0.00002065,0.00004397,0.00000780,-0
 .00001555,-0.00000800,-0.00005298,0.00003153,0.00003100,-0.00001525,0.
 00005856,0.00005652,-0.00002259,-0.00000163,0.00001106,-0.00000337,0.0
 0001568,0.00000999,-0.00000450,0.00000811,0.00001042,-0.00492444,-0.01
 772654,-0.00055534,0.00083250,0.00267995,0.00184378,0.00116490,0.00151
 902,0.00075186,0.00488815,-0.00429097,0.00738953,-0.00073678,0.0020050
 8,-0.00330138,-0.00300767,-0.00051491,-0.00327060,-0.00421750,-0.40205
 695,0.09013539,0.00760366,0.41753683,0.00001830,0.00000699,-0.00001907
 ,-0.00003627,-0.00006979,0.00003383,0.00007212,0.00013060,0.00026949,-
 0.00014297,0.00010525,-0.00010835,0.00011135,-0.00010677,0.00001629,-0
 .00007226,-0.00004455,0.00002663,0.00000748,-0.00001004,0.00000434,0.0
 0001204,-0.00000208,-0.00000038,-0.00050537,0.00011275,0.00019082,-0.0
 0012685,-0.00019401,0.00040129,-0.00000688,-0.00000401,0.00000730,0.00
 000253,-0.00000315,0.00000415,0.00069683,-0.00067740,-0.00019836,-0.00
 270400,-0.00246183,-0.00225594,0.00001016,-0.00005848,0.00008625,-0.00
 008718,-0.00015850,-0.00042712,0.00045909,-0.00073766,0.00052108,-0.00
 001782,0.00018252,0.00002387,0.00002241,0.00014972,0.00010805,0.000065
 34,0.00001146,0.00000256,-0.00001946,-0.00004933,-0.00000758,-0.000047
 93,-0.00003108,-0.00015504,0.00002257,-0.00000139,-0.00000791,-0.00002
 309,0.00000925,0.00000869,0.00000199,0.00001300,0.00002267,0.00000420,
 0.00000594,0.00001439,0.00001625,0.00001756,-0.00000137,0.00000665,-0.
 00000499,0.00000018,-0.00000011,-0.00000033,0.00000168,0.00000317,-0.0
 0000173,0.00000201,-0.00050766,-0.02581805,0.00899340,0.00135223,0.003
 48041,-0.00215052,0.00017372,0.00154849,-0.00091422,0.00764560,0.01774
 789,-0.00033357,-0.00431124,0.00252555,-0.00606893,0.00027011,-0.00347
 229,-0.00126717,-0.02678051,0.09979688,-0.05595600,0.02438963,-0.09186
 988,0.05914273,0.00001121,-0.00001847,0.00000893,-0.00001636,0.0000106
 4,-0.00003282,-0.00033343,-0.00004096,0.00006170,0.00005413,-0.0000430
 4,0.00009087,-0.00003627,0.00000678,-0.00000854,0.00001815,0.00000337,
 -0.00000100,0.00000057,-0.00000374,0.00000168,-0.00000043,0.00000447,-
 0.00000195,0.00027197,-0.00108354,-0.00045272,-0.00005313,0.00004839,-
 0.00003119,-0.00000116,-0.00000859,0.00000605,0.00000105,-0.00000207,0
 .00000198,-0.00009197,-0.00002306,0.00007361,0.00007164,0.00003659,0.0
 0001968,-0.00000262,-0.00000042,-0.00000837,-0.00316325,-0.00217914,0.
 00309666,-0.00179054,-0.02029715,-0.01064204,-0.00073561,0.00072138,0.
 00048862,-0.07036048,-0.06684186,-0.02449543,-0.00069239,-0.00037543,0
 .00552856,0.00001182,-0.00008866,-0.00043214,0.00977590,0.01698739,0.0
 0859928,0.00069317,0.00045418,-0.00008615,-0.00028378,-0.00004046,0.00
 019490,0.00001471,0.00002351,0.00002740,-0.00039057,0.00092206,-0.0024
 8350,-0.00008527,0.00049644,0.00005811,0.00000666,-0.00006232,0.000051
 07,0.00001600,-0.00000748,0.00001202,0.00003391,0.00007948,0.00005121,
 -0.00016383,-0.00080905,-0.00042897,-0.00001243,0.00022286,0.00010847,
 0.00014164,0.00013468,0.00010359,-0.00315015,-0.00443032,-0.00252896,0
 .00069404,0.00084546,-0.00029474,0.00140116,0.00220600,0.00042876,0.00
 039746,0.00060353,0.00073504,-0.00013766,0.00007074,0.00002497,0.06790
 107,0.00001277,-0.00000309,-0.00000383,0.00000466,-0.00000008,0.000008
 36,-0.00006847,0.00002050,-0.00002894,0.00001974,0.00000245,0.00000757
 ,0.00000250,0.00000485,0.00000077,0.00000345,-0.00000462,-0.00000306,0
 .00000020,-0.00000436,0.00000345,-0.00000197,-0.00000036,-0.00000087,0
 .00008526,-0.00007204,-0.00046212,-0.00003771,0.00001598,-0.00001068,-
 0.00000020,-0.00000109,0.00000337,0.00000053,-0.00000135,0.00000095,-0
 .00001841,-0.00000914,0.00004050,-0.00002984,0.00003171,0.00005600,0.0
 0000054,-0.00000294,-0.00000407,-0.00237729,0.00190353,0.00007734,-0.0
 0292655,-0.00672503,-0.00494404,0.00057163,0.00004026,0.00007376,-0.06
 666880,-0.28123233,-0.11665041,-0.00031984,0.00249252,-0.00379916,0.00
 004570,0.00006534,0.00040180,-0.00502980,-0.00373658,-0.00346611,-0.00
 032142,-0.00014412,0.00017948,0.00025249,0.00010743,-0.00012639,-0.000
 00813,0.00001299,-0.00000047,0.00112206,-0.00076229,0.00238609,0.00013
 778,-0.00037382,0.00003123,-0.00002487,0.00004808,-0.00006032,-0.00000
 930,0.00000431,-0.00002039,-0.00003274,-0.00001866,-0.00002299,-0.0000
 8064,-0.00022965,-0.00007430,-0.00000763,0.00003691,0.00002450,-0.0000
 0349,0.00003128,0.00001284,0.00072557,-0.00227033,-0.00011073,-0.00036
 496,0.00030628,0.00016239,0.00254710,-0.00013233,-0.00112050,0.0002817
 5,-0.00000844,0.00003416,0.00003635,0.00004504,-0.00003481,0.07248880,
 0.29056754,-0.00001035,0.00000901,-0.00000245,-0.00001098,0.00001302,-
 0.00000152,0.00003426,-0.00000010,0.00000466,-0.00000663,-0.00000866,-
 0.00001677,-0.00000082,-0.00000630,0.00000126,-0.00000714,0.00000255,0
 .00000865,0.00000002,0.00000100,-0.00000386,0.00000443,0.00000786,-0.0
 0000770,0.00003681,0.00019429,0.00058775,0.00004019,0.00000113,0.00000
 422,-0.00000006,-0.00000052,-0.00000302,-0.00000004,0.00000105,-0.0000
 0078,0.00000055,-0.00001303,-0.00003248,0.00008542,-0.00006655,-0.0001
 1210,-0.00000168,0.00000053,0.00000391,0.00332786,-0.00111247,0.001634
 67,0.00222472,0.00746195,0.00619739,-0.00016569,0.00039223,-0.00031333
 ,-0.02620847,-0.11705629,-0.09973077,0.00545603,-0.00360342,0.00336581
 ,-0.00029831,0.00021623,-0.00027157,-0.00516408,-0.01701133,-0.0024732
 1,-0.00048718,-0.00054011,-0.00019380,0.00004838,0.00002639,0.00006198
 ,0.00000924,-0.00003446,0.00000346,-0.00231648,0.00256655,-0.00239947,
 0.00001573,0.00017973,-0.00050360,0.00007776,-0.00005195,0.00009241,0.
 00000886,-0.00002750,0.00002534,-0.00001532,-0.00007449,-0.00000949,0.
 00006314,0.00051464,0.00049427,0.00007796,-0.00003710,-0.00015277,-0.0
 0010599,-0.00008549,-0.00013005,0.00104048,0.00219141,-0.00078947,0.00
 024032,-0.00013960,-0.00024870,0.00078407,-0.00108530,-0.00132767,-0.0
 0086018,-0.00018524,-0.00041619,-0.00007158,-0.00008178,0.00006596,0.0
 2214602,0.12743634,0.09658955,0.00005741,-0.00002840,0.00002050,0.0000
 2318,-0.00002081,-0.00002764,0.00038992,-0.00046030,0.00014082,0.00094
 971,-0.00100291,0.00108707,0.00022902,0.00000885,0.00003304,0.00006806
 ,-0.00002366,-0.00002367,-0.00000080,0.00000844,-0.00000113,0.00002072
 ,-0.00001416,0.00001312,-0.00210162,-0.00300093,0.00197511,0.00666727,
 -0.00323113,0.00135597,-0.00001102,0.00000636,0.00000658,0.00002230,-0
 .00002563,0.00000775,-0.27541676,0.12375369,-0.04875857,-0.01606074,0.
 01138601,-0.00496889,0.00040905,-0.00002610,-0.00034375,-0.00044586,0.
 00079823,-0.00030637,0.00006133,-0.00001409,0.00005704,-0.00018564,-0.
 00019344,-0.00001492,-0.00005221,-0.00005946,0.00006125,0.00001678,0.0
 0003216,0.00007370,-0.00000095,-0.00000567,-0.00001708,-0.00001067,-0.
 00005627,-0.00004233,-0.00001149,-0.00001848,-0.00000837,0.00000238,0.
 00001902,0.00000734,0.00000251,-0.00000240,-0.00000306,-0.00000356,0.0
 0000252,-0.00000727,0.00000768,0.00000899,0.00000013,-0.00000504,0.000
 00163,0.00000736,-0.00000308,0.00000281,0.00000430,-0.00000069,0.00000
 161,0.00000249,-0.00451784,0.00201868,-0.00093131,0.00075948,-0.000282
 47,-0.00026994,0.00232955,0.00133745,-0.00079074,-0.00056434,0.0003808
 3,-0.00016634,0.00010993,-0.00011595,-0.00002136,0.00013347,-0.0000148
 9,0.00004501,0.00054041,-0.00010993,0.00042528,-0.00000720,-0.00008300
 ,0.00000088,-0.00001489,-0.00000680,0.00000873,0.28661423,-0.00029900,
 -0.00025098,0.00017889,-0.00013566,0.00025973,-0.00042706,-0.00023571,
 -0.00094482,0.00017037,-0.00104625,-0.00198316,0.00550267,0.00094200,0
 .00026692,-0.00020080,0.00030280,-0.00049838,-0.00002668,0.00001090,0.
 00000922,0.00001622,0.00002248,-0.00000624,0.00001488,-0.00267996,-0.0
 0014899,0.00226727,0.02284515,-0.00579654,0.00478909,-0.00003702,0.000
 02999,0.00006760,0.00010380,-0.00003065,0.00003602,0.12425459,-0.12241
 259,0.03464740,-0.01007482,0.00948542,-0.00264697,-0.00028568,0.000049
 69,-0.00281963,-0.00049675,0.00065993,0.00004565,0.00005951,0.00001339
 ,0.00003200,-0.00017477,-0.00014329,0.00003731,-0.00003180,-0.00004993
 ,0.00002401,0.00000304,0.00002214,0.00007347,-0.00000573,-0.00000261,-
 0.00002749,-0.00000222,-0.00002694,-0.00002487,-0.00001800,-0.00002061
 ,-0.00000956,-0.00000701,0.00000752,0.00001266,0.00000227,-0.00000288,
 -0.00000208,-0.00000067,-0.00000102,-0.00000537,0.00001120,0.00000534,
 -0.00000094,-0.00000454,0.00000219,0.00000433,0.00000010,0.00000053,-0
 .00000015,-0.00000051,0.00000068,0.00000138,-0.00418014,-0.00054904,-0
 .00128822,0.00077948,0.00031682,-0.00022893,0.00091908,-0.00267352,0.0
 0097359,-0.00057696,0.00042628,-0.00032331,0.00010417,-0.00014538,0.00
 004531,0.00018020,0.00001669,0.00008957,0.00081108,-0.00024373,0.00071
 837,-0.00007729,-0.00005660,-0.00003214,-0.00001098,-0.00000435,0.0000
 0580,-0.13097039,0.12441976,-0.00000114,-0.00002829,0.00008322,-0.0000
 9616,-0.00025002,-0.00044680,0.00000944,-0.00041315,-0.00047223,0.0010
 8839,0.00532899,0.00618863,-0.00055082,0.00005228,-0.00015365,0.000104
 80,-0.00009730,-0.00055679,-0.00000809,0.00001993,0.00003754,-0.000015
 93,0.00002862,0.00001468,0.00140259,0.00320419,0.00259693,-0.01176840,
 0.00677355,0.00299727,0.00001991,0.00007583,0.00013139,-0.00004546,0.0
 0003889,0.00002283,-0.05002153,0.03381507,-0.05373440,0.00741738,-0.00
 387179,0.00436465,-0.00015320,-0.00281683,-0.00404300,0.00022012,-0.00
 018854,0.00061355,0.00001237,0.00013705,-0.00010899,0.00000014,0.00001
 542,0.00003078,-0.00002200,0.00001267,-0.00002447,-0.00001359,0.000016
 00,-0.00000460,0.00000133,-0.00002082,-0.00001213,0.00003443,0.0000232
 9,0.00000479,-0.00000736,-0.00000207,-0.00000112,-0.00000695,-0.000013
 54,-0.00000288,0.00000965,-0.00000071,-0.00000900,-0.00000047,-0.00000
 314,0.00000283,0.00000144,-0.00000652,0.00000679,-0.00000129,0.0000015
 7,-0.00000281,0.00000078,0.00000036,-0.00000491,0.00000082,-0.00000062
 ,-0.00000074,0.00219183,-0.00094464,-0.00139020,0.00002245,0.00046657,
 -0.00021947,-0.00079378,0.00108257,-0.00096461,0.00031521,-0.00034694,
 0.00030694,0.00002677,0.00008253,-0.00009299,-0.00012164,0.00000672,-0
 .00010110,-0.00051528,-0.00052064,-0.00023374,-0.00011537,0.00002985,-
 0.00007616,0.00000935,0.00000328,-0.00000052,0.05136927,-0.04168966,0.
 04525450\\0.00000028,-0.00000009,-0.00000210,-0.00000350,-0.00000088,-
 0.00000690,0.00000224,0.00000848,-0.00000241,0.00000818,-0.00001100,-0
 .00000275,-0.00000081,0.00000009,-0.00000480,-0.00000007,-0.00000358,-
 0.00000231,-0.00000014,-0.00000023,-0.00000164,0.00000279,0.00000108,-
 0.00000287,-0.00001883,-0.00001942,0.00002115,-0.00001577,0.00000642,-
 0.00000705,-0.00000046,-0.00000342,-0.00000608,-0.00000040,-0.00000319
 ,-0.00000524,0.00001831,-0.00002542,0.00000945,-0.00000659,0.00003613,
 -0.00000469,-0.00000050,-0.00000146,-0.00000712,0.00003803,0.00000931,
 -0.00000604,-0.00002136,0.00001192,0.00002225,-0.00001085,0.00000522,0
 .00001647,-0.00000537,-0.00002620,-0.00000483,0.00000429,-0.00000063,-
 0.00000275,0.00000297,-0.00000192,-0.00000210,0.00000444,0.00001300,0.
 00000430,0.00000242,0.00000258,0.00000320,0.00000054,0.00000303,0.0000
 0255,0.00000319,-0.00000001,-0.00000322,-0.00000208,0.00000434,0.00000
 687,0.00000611,0.00000548,0.00000145,0.00000208,0.00000476,0.00000481,
 0.00000352,0.00000353,-0.00000042,0.00000402,0.00000493,0.00000198,0.0
 0000497,-0.00000627,0.00000145,0.00000723,0.00000789,-0.00001275,0.000
 00256,0.00000909,0.00000556,0.00003095,-0.00000186,-0.00000216,-0.0000
 0195,-0.00000392,-0.00000165,-0.00000527,-0.00001662,0.00000627,-0.000
 04696,-0.00001248,-0.00001331,-0.00000445,-0.00000170,-0.00000275,0.00
 000132,0.00000468,0.00000493,-0.00000512,-0.00000165,-0.00000475\\\@
 The archive entry for this job was punched.


 AND ALL THIS SCIENCE I DON'T UNDERSTAND
 IT'S JUST MY JOB FIVE DAYS A WEEK

                           -- ELTON JOHN, "ROCKET MAN"
 Job cpu time:       0 days  6 hours 12 minutes  5.6 seconds.
 Elapsed time:       0 days  0 hours 11 minutes 43.8 seconds.
 File lengths (MBytes):  RWF=   1289 Int=      0 D2E=      0 Chk=     33 Scr=      1
 Normal termination of Gaussian 16 at Tue Jun 11 18:17:18 2024.
