 Entering Gaussian System, Link 0=g16
 Initial command:
 /opt/packages/gaussian/g16RevC.01/g16/l1.exe "/local/Gau-87889.inp" -scrdir="/local/"
 Entering Link 1 = /opt/packages/gaussian/g16RevC.01/g16/l1.exe PID=     87890.
  
 Copyright (c) 1988-2019, Gaussian, Inc.  All Rights Reserved.
  
 This is part of the Gaussian(R) 16 program.  It is based on
 the Gaussian(R) 09 system (copyright 2009, Gaussian, Inc.),
 the Gaussian(R) 03 system (copyright 2003, Gaussian, Inc.),
 the Gaussian(R) 98 system (copyright 1998, Gaussian, Inc.),
 the Gaussian(R) 94 system (copyright 1995, Gaussian, Inc.),
 the Gaussian 92(TM) system (copyright 1992, Gaussian, Inc.),
 the Gaussian 90(TM) system (copyright 1990, Gaussian, Inc.),
 the Gaussian 88(TM) system (copyright 1988, Gaussian, Inc.),
 the Gaussian 86(TM) system (copyright 1986, Carnegie Mellon
 University), and the Gaussian 82(TM) system (copyright 1983,
 Carnegie Mellon University). Gaussian is a federally registered
 trademark of Gaussian, Inc.
  
 This software contains proprietary and confidential information,
 including trade secrets, belonging to Gaussian, Inc.
  
 This software is provided under written license and may be
 used, copied, transmitted, or stored only in accord with that
 written license.
  
 The following legend is applicable only to US Government
 contracts under FAR:
  
                    RESTRICTED RIGHTS LEGEND
  
 Use, reproduction and disclosure by the US Government is
 subject to restrictions as set forth in subparagraphs (a)
 and (c) of the Commercial Computer Software - Restricted
 Rights clause in FAR 52.227-19.
  
 Gaussian, Inc.
 340 Quinnipiac St., Bldg. 40, Wallingford CT 06492
  
  
 ---------------------------------------------------------------
 Warning -- This program may not be used in any manner that
 competes with the business of Gaussian, Inc. or will provide
 assistance to any competitor of Gaussian, Inc.  The licensee
 of this program is prohibited from giving any competitor of
 Gaussian, Inc. access to this program.  By using this program,
 the user acknowledges that Gaussian, Inc. is engaged in the
 business of creating and licensing software in the field of
 computational chemistry and represents and warrants to the
 licensee that it is not a competitor of Gaussian, Inc. and that
 it will not use this program in any manner prohibited above.
 ---------------------------------------------------------------
  

 Cite this work as:
 Gaussian 16, Revision C.01,
 M. J. Frisch, G. W. Trucks, H. B. Schlegel, G. E. Scuseria, 
 M. A. Robb, J. R. Cheeseman, G. Scalmani, V. Barone, 
 G. A. Petersson, H. Nakatsuji, X. Li, M. Caricato, A. V. Marenich, 
 J. Bloino, B. G. Janesko, R. Gomperts, B. Mennucci, H. P. Hratchian, 
 J. V. Ortiz, A. F. Izmaylov, J. L. Sonnenberg, D. Williams-Young, 
 F. Ding, F. Lipparini, F. Egidi, J. Goings, B. Peng, A. Petrone, 
 T. Henderson, D. Ranasinghe, V. G. Zakrzewski, J. Gao, N. Rega, 
 G. Zheng, W. Liang, M. Hada, M. Ehara, K. Toyota, R. Fukuda, 
 J. Hasegawa, M. Ishida, T. Nakajima, Y. Honda, O. Kitao, H. Nakai, 
 T. Vreven, K. Throssell, J. A. Montgomery, Jr., J. E. Peralta, 
 F. Ogliaro, M. J. Bearpark, J. J. Heyd, E. N. Brothers, K. N. Kudin, 
 V. N. Staroverov, T. A. Keith, R. Kobayashi, J. Normand, 
 K. Raghavachari, A. P. Rendell, J. C. Burant, S. S. Iyengar, 
 J. Tomasi, M. Cossi, J. M. Millam, M. Klene, C. Adamo, R. Cammi, 
 J. W. Ochterski, R. L. Martin, K. Morokuma, O. Farkas, 
 J. B. Foresman, and D. J. Fox, Gaussian, Inc., Wallingford CT, 2019.
 
 ******************************************
 Gaussian 16:  ES64L-G16RevC.01  3-Jul-2019
                11-Jun-2024 
 ******************************************
 %nprocshared=32
 Will use up to   32 processors via shared memory.
 %mem=64GB
 ----------------------------------------------------------------------
 #p m062x genecp opt freq nosymm scrf=(smd,solvent=propylethanoate) emp
 iricaldispersion=gd3 scf=(xqc,maxcycles=128)
 ----------------------------------------------------------------------
 1/18=20,19=15,26=3,38=1/1,3;
 2/9=110,12=2,15=1,17=6,18=5,40=1/2;
 3/5=7,11=2,16=1,17=8,25=1,30=1,70=32201,71=1,72=169,74=-55,124=31/1,2,3;
 4//1;
 5/5=2,7=128,8=3,13=1,38=5,53=169/2,8;
 6/7=2,8=2,9=2,10=2,28=1/1;
 7/30=1/1,2,3,16;
 1/18=20,19=15,26=3/3(2);
 2/9=110,15=1/2;
 99//99;
 2/9=110,15=1/2;
 3/5=7,6=1,11=2,16=1,17=8,25=1,30=1,70=32205,71=1,72=169,74=-55,82=7,124=31/1,2,3;
 4/5=5,16=3,69=1/1;
 5/5=2,7=128,8=3,13=1,38=5,53=169/2,8;
 7/30=1/1,2,3,16;
 1/18=20,19=15,26=3/3(-5);
 2/9=110,15=1/2;
 6/7=2,8=2,9=2,10=2,19=2,28=1/1;
 99/9=1/99;
 Leave Link    1 at Tue Jun 11 17:54:46 2024, MaxMem=  8589934592 cpu:               1.8 elap:               0.1
 (Enter /opt/packages/gaussian/g16RevC.01/g16/l101.exe)
 -------------------
 Title Card Required
 -------------------
 Symbolic Z-matrix:
 Charge =  0 Multiplicity = 1
 C                    -2.61537   6.26172  -1.56941 
 C                    -2.61356   5.07721  -0.87268 
 C                    -1.38782   4.48873  -0.45381 
 C                    -0.16667   5.13794  -0.79465 
 C                    -0.20095   6.36775  -1.50824 
 C                    -1.40005   6.91921  -1.88389 
 H                    -3.56272   6.6985   -1.88832 
 H                    -3.55815   4.58143  -0.64855 
 C                    -1.33668   3.25607   0.27573 
 C                     1.06567   4.54399  -0.43833 
 H                     0.74429   6.85445  -1.75502 
 H                    -1.42216   7.86064  -2.43469 
 C                     1.12536   3.33119   0.22247 
 C                    -0.10796   2.70029   0.58333 
 H                     1.9975    5.04579  -0.70503 
 C                    -2.63858   2.60911   0.64972 
 C                    -3.08174   1.44493   0.04936 
 C                    -3.44003   3.23184   1.66014 
 C                    -4.34592   0.85778   0.37375 
 C                    -4.7074    2.66499   1.97835 
 C                    -3.00745   4.3828    2.3754 
 C                    -5.13617   1.4931    1.31451 
 C                    -5.52062   3.27783   2.97143 
 C                    -3.81052   4.94735   3.33715 
 H                    -2.0279    4.81412   2.16769 
 H                    -6.11165   1.06766   1.5572 
 C                    -5.08253   4.39692   3.63375 
 H                    -6.49165   2.83388   3.19741 
 H                    -3.46357   5.82657   3.8818 
 H                    -5.70728   4.8622    4.39757 
 S                    -0.11748   1.08374   1.34283 
 O                    -1.0948    1.0727    2.41342 
 O                     1.20586   0.56876   1.60931 
 S                    -1.93218   0.61531  -1.04579 
 O                    -1.41565   1.58574  -1.98385 
 O                    -2.44161  -0.65243  -1.51748 
 N                    -0.67921   0.1755    0.01631 
 C                     2.42639   2.80659   0.5079 
 C                     3.57813   2.47219   0.68764 
 C                    -4.87664  -0.32957  -0.2256 
 C                    -5.44613  -1.31051  -0.65516 
 C                    -6.09464  -2.47589  -1.17696 
 C                    -7.39033  -2.84367  -0.75927 
 C                    -5.43363  -3.27386  -2.1223 
 C                    -8.00131  -3.98053  -1.27755 
 C                    -6.05146  -4.41028  -2.63736 
 H                    -4.43151  -2.98658  -2.44236 
 C                    -7.33218  -4.76527  -2.21759 
 H                    -9.00323  -4.25386  -0.94633 
 H                    -5.52687  -5.02223  -3.37255 
 H                    -7.81632  -5.65543  -2.62097 
 C                     4.92414   2.03855   0.91254 
 C                     5.15779   0.81437   1.55611 
 C                     6.02629   2.81397   0.49806 
 C                     6.46014   0.37606   1.77999 
 H                     4.30169   0.21796   1.8735 
 C                     7.3247    2.36991   0.72474 
 C                     7.54294   1.15      1.3661 
 H                     6.62879  -0.57809   2.28137 
 H                     8.1684    2.97851   0.39915 
 H                     8.56327   0.80652   1.54061 
 C                     5.78636   4.13238  -0.1919 
 F                     6.92843   4.73509  -0.52564 
 F                     5.10517   4.98438   0.58254 
 F                     5.07639   3.98726  -1.31599 
 C                    -8.11117  -1.99241   0.25467 
 F                    -9.32051  -2.47576   0.54201 
 F                    -8.28288  -0.73821  -0.17773 
 F                    -7.43788  -1.90977   1.40771 
 H                    -0.68168  -0.83194   0.21493 
 
 ITRead=  0  0  0  0  0  0  0  0  0  0  0  0  0  0  0  0  0  0  0  0
 ITRead=  0  0  0  0  0  0  0  0  0  0  0  0  0  0  0  0  0  0  0  0
 ITRead=  0  0  0  0  0  0  0  0  0  0  0  0  0  0  0  0  0  0  0  0
 ITRead=  0  0  0  0  0  0  0  0  0  0
 MicOpt= -1 -1 -1 -1 -1 -1 -1 -1 -1 -1 -1 -1 -1 -1 -1 -1 -1 -1 -1 -1
 MicOpt= -1 -1 -1 -1 -1 -1 -1 -1 -1 -1 -1 -1 -1 -1 -1 -1 -1 -1 -1 -1
 MicOpt= -1 -1 -1 -1 -1 -1 -1 -1 -1 -1 -1 -1 -1 -1 -1 -1 -1 -1 -1 -1
 MicOpt= -1 -1 -1 -1 -1 -1 -1 -1 -1 -1
 NAtoms=     70 NQM=       70 NQMF=       0 NMMI=      0 NMMIF=      0
                NMic=       0 NMicF=      0.
                    Isotopes and Nuclear Properties:
 (Nuclear quadrupole moments (NQMom) in fm**2, nuclear magnetic moments (NMagM)
  in nuclear magnetons)

  Atom         1           2           3           4           5           6           7           8           9          10
 IAtWgt=          12          12          12          12          12          12           1           1          12          12
 AtmWgt=  12.0000000  12.0000000  12.0000000  12.0000000  12.0000000  12.0000000   1.0078250   1.0078250  12.0000000  12.0000000
 NucSpn=           0           0           0           0           0           0           1           1           0           0
 AtZEff=   0.0000000   0.0000000   0.0000000   0.0000000   0.0000000   0.0000000   0.0000000   0.0000000   0.0000000   0.0000000
 NQMom=    0.0000000   0.0000000   0.0000000   0.0000000   0.0000000   0.0000000   0.0000000   0.0000000   0.0000000   0.0000000
 NMagM=    0.0000000   0.0000000   0.0000000   0.0000000   0.0000000   0.0000000   2.7928460   2.7928460   0.0000000   0.0000000
 AtZNuc=   6.0000000   6.0000000   6.0000000   6.0000000   6.0000000   6.0000000   1.0000000   1.0000000   6.0000000   6.0000000

  Atom        11          12          13          14          15          16          17          18          19          20
 IAtWgt=           1           1          12          12           1          12          12          12          12          12
 AtmWgt=   1.0078250   1.0078250  12.0000000  12.0000000   1.0078250  12.0000000  12.0000000  12.0000000  12.0000000  12.0000000
 NucSpn=           1           1           0           0           1           0           0           0           0           0
 AtZEff=   0.0000000   0.0000000   0.0000000   0.0000000   0.0000000   0.0000000   0.0000000   0.0000000   0.0000000   0.0000000
 NQMom=    0.0000000   0.0000000   0.0000000   0.0000000   0.0000000   0.0000000   0.0000000   0.0000000   0.0000000   0.0000000
 NMagM=    2.7928460   2.7928460   0.0000000   0.0000000   2.7928460   0.0000000   0.0000000   0.0000000   0.0000000   0.0000000
 AtZNuc=   1.0000000   1.0000000   6.0000000   6.0000000   1.0000000   6.0000000   6.0000000   6.0000000   6.0000000   6.0000000

  Atom        21          22          23          24          25          26          27          28          29          30
 IAtWgt=          12          12          12          12           1           1          12           1           1           1
 AtmWgt=  12.0000000  12.0000000  12.0000000  12.0000000   1.0078250   1.0078250  12.0000000   1.0078250   1.0078250   1.0078250
 NucSpn=           0           0           0           0           1           1           0           1           1           1
 AtZEff=   0.0000000   0.0000000   0.0000000   0.0000000   0.0000000   0.0000000   0.0000000   0.0000000   0.0000000   0.0000000
 NQMom=    0.0000000   0.0000000   0.0000000   0.0000000   0.0000000   0.0000000   0.0000000   0.0000000   0.0000000   0.0000000
 NMagM=    0.0000000   0.0000000   0.0000000   0.0000000   2.7928460   2.7928460   0.0000000   2.7928460   2.7928460   2.7928460
 AtZNuc=   6.0000000   6.0000000   6.0000000   6.0000000   1.0000000   1.0000000   6.0000000   1.0000000   1.0000000   1.0000000

  Atom        31          32          33          34          35          36          37          38          39          40
 IAtWgt=          32          16          16          32          16          16          14          12          12          12
 AtmWgt=  31.9720718  15.9949146  15.9949146  31.9720718  15.9949146  15.9949146  14.0030740  12.0000000  12.0000000  12.0000000
 NucSpn=           0           0           0           0           0           0           2           0           0           0
 AtZEff=   0.0000000   0.0000000   0.0000000   0.0000000   0.0000000   0.0000000   0.0000000   0.0000000   0.0000000   0.0000000
 NQMom=    0.0000000   0.0000000   0.0000000   0.0000000   0.0000000   0.0000000   2.0440000   0.0000000   0.0000000   0.0000000
 NMagM=    0.0000000   0.0000000   0.0000000   0.0000000   0.0000000   0.0000000   0.4037610   0.0000000   0.0000000   0.0000000
 AtZNuc=  16.0000000   8.0000000   8.0000000  16.0000000   8.0000000   8.0000000   7.0000000   6.0000000   6.0000000   6.0000000

  Atom        41          42          43          44          45          46          47          48          49          50
 IAtWgt=          12          12          12          12          12          12           1          12           1           1
 AtmWgt=  12.0000000  12.0000000  12.0000000  12.0000000  12.0000000  12.0000000   1.0078250  12.0000000   1.0078250   1.0078250
 NucSpn=           0           0           0           0           0           0           1           0           1           1
 AtZEff=   0.0000000   0.0000000   0.0000000   0.0000000   0.0000000   0.0000000   0.0000000   0.0000000   0.0000000   0.0000000
 NQMom=    0.0000000   0.0000000   0.0000000   0.0000000   0.0000000   0.0000000   0.0000000   0.0000000   0.0000000   0.0000000
 NMagM=    0.0000000   0.0000000   0.0000000   0.0000000   0.0000000   0.0000000   2.7928460   0.0000000   2.7928460   2.7928460
 AtZNuc=   6.0000000   6.0000000   6.0000000   6.0000000   6.0000000   6.0000000   1.0000000   6.0000000   1.0000000   1.0000000

  Atom        51          52          53          54          55          56          57          58          59          60
 IAtWgt=           1          12          12          12          12           1          12          12           1           1
 AtmWgt=   1.0078250  12.0000000  12.0000000  12.0000000  12.0000000   1.0078250  12.0000000  12.0000000   1.0078250   1.0078250
 NucSpn=           1           0           0           0           0           1           0           0           1           1
 AtZEff=   0.0000000   0.0000000   0.0000000   0.0000000   0.0000000   0.0000000   0.0000000   0.0000000   0.0000000   0.0000000
 NQMom=    0.0000000   0.0000000   0.0000000   0.0000000   0.0000000   0.0000000   0.0000000   0.0000000   0.0000000   0.0000000
 NMagM=    2.7928460   0.0000000   0.0000000   0.0000000   0.0000000   2.7928460   0.0000000   0.0000000   2.7928460   2.7928460
 AtZNuc=   1.0000000   6.0000000   6.0000000   6.0000000   6.0000000   1.0000000   6.0000000   6.0000000   1.0000000   1.0000000

  Atom        61          62          63          64          65          66          67          68          69          70
 IAtWgt=           1          12          19          19          19          12          19          19          19           1
 AtmWgt=   1.0078250  12.0000000  18.9984032  18.9984032  18.9984032  12.0000000  18.9984032  18.9984032  18.9984032   1.0078250
 NucSpn=           1           0           1           1           1           0           1           1           1           1
 AtZEff=   0.0000000   0.0000000   0.0000000   0.0000000   0.0000000   0.0000000   0.0000000   0.0000000   0.0000000   0.0000000
 NQMom=    0.0000000   0.0000000   0.0000000   0.0000000   0.0000000   0.0000000   0.0000000   0.0000000   0.0000000   0.0000000
 NMagM=    2.7928460   0.0000000   2.6288670   2.6288670   2.6288670   0.0000000   2.6288670   2.6288670   2.6288670   2.7928460
 AtZNuc=   1.0000000   6.0000000   9.0000000   9.0000000   9.0000000   6.0000000   9.0000000   9.0000000   9.0000000   1.0000000
 Leave Link  101 at Tue Jun 11 17:54:47 2024, MaxMem=  8589934592 cpu:              14.6 elap:               0.6
 (Enter /opt/packages/gaussian/g16RevC.01/g16/l103.exe)

 GradGradGradGradGradGradGradGradGradGradGradGradGradGradGradGradGradGrad
 Berny optimization.
 Initialization pass.
                           ----------------------------
                           !    Initial Parameters    !
                           ! (Angstroms and Degrees)  !
 --------------------------                            --------------------------
 ! Name  Definition              Value          Derivative Info.                !
 --------------------------------------------------------------------------------
 ! R1    R(1,2)                  1.3742         estimate D2E/DX2                !
 ! R2    R(1,6)                  1.4171         estimate D2E/DX2                !
 ! R3    R(1,7)                  1.0909         estimate D2E/DX2                !
 ! R4    R(2,3)                  1.4227         estimate D2E/DX2                !
 ! R5    R(2,8)                  1.0901         estimate D2E/DX2                !
 ! R6    R(3,4)                  1.4244         estimate D2E/DX2                !
 ! R7    R(3,9)                  1.4333         estimate D2E/DX2                !
 ! R8    R(4,5)                  1.4223         estimate D2E/DX2                !
 ! R9    R(4,10)                 1.4136         estimate D2E/DX2                !
 ! R10   R(5,6)                  1.3722         estimate D2E/DX2                !
 ! R11   R(5,11)                 1.0915         estimate D2E/DX2                !
 ! R12   R(6,12)                 1.091          estimate D2E/DX2                !
 ! R13   R(9,14)                 1.3832         estimate D2E/DX2                !
 ! R14   R(9,16)                 1.5011         estimate D2E/DX2                !
 ! R15   R(10,13)                1.3824         estimate D2E/DX2                !
 ! R16   R(10,15)                1.0914         estimate D2E/DX2                !
 ! R17   R(13,14)                1.4316         estimate D2E/DX2                !
 ! R18   R(13,38)                1.4316         estimate D2E/DX2                !
 ! R19   R(14,31)                1.7861         estimate D2E/DX2                !
 ! R20   R(16,17)                1.3828         estimate D2E/DX2                !
 ! R21   R(16,18)                1.4322         estimate D2E/DX2                !
 ! R22   R(17,19)                1.4311         estimate D2E/DX2                !
 ! R23   R(17,34)                1.7914         estimate D2E/DX2                !
 ! R24   R(18,20)                1.4244         estimate D2E/DX2                !
 ! R25   R(18,21)                1.4225         estimate D2E/DX2                !
 ! R26   R(19,22)                1.3832         estimate D2E/DX2                !
 ! R27   R(19,40)                1.432          estimate D2E/DX2                !
 ! R28   R(20,22)                1.4135         estimate D2E/DX2                !
 ! R29   R(20,23)                1.4224         estimate D2E/DX2                !
 ! R30   R(21,24)                1.3743         estimate D2E/DX2                !
 ! R31   R(21,25)                1.0903         estimate D2E/DX2                !
 ! R32   R(22,26)                1.0915         estimate D2E/DX2                !
 ! R33   R(23,27)                1.3722         estimate D2E/DX2                !
 ! R34   R(23,28)                1.0914         estimate D2E/DX2                !
 ! R35   R(24,27)                1.4174         estimate D2E/DX2                !
 ! R36   R(24,29)                1.0909         estimate D2E/DX2                !
 ! R37   R(27,30)                1.091          estimate D2E/DX2                !
 ! R38   R(31,32)                1.4496         estimate D2E/DX2                !
 ! R39   R(31,33)                1.4448         estimate D2E/DX2                !
 ! R40   R(31,37)                1.703          estimate D2E/DX2                !
 ! R41   R(34,35)                1.4452         estimate D2E/DX2                !
 ! R42   R(34,36)                1.4454         estimate D2E/DX2                !
 ! R43   R(34,37)                1.7004         estimate D2E/DX2                !
 ! R44   R(37,70)                1.0268         estimate D2E/DX2                !
 ! R45   R(38,39)                1.2127         estimate D2E/DX2                !
 ! R46   R(39,52)                1.4319         estimate D2E/DX2                !
 ! R47   R(40,41)                1.2129         estimate D2E/DX2                !
 ! R48   R(41,42)                1.4321         estimate D2E/DX2                !
 ! R49   R(42,43)                1.4102         estimate D2E/DX2                !
 ! R50   R(42,44)                1.4026         estimate D2E/DX2                !
 ! R51   R(43,45)                1.3908         estimate D2E/DX2                !
 ! R52   R(43,66)                1.5074         estimate D2E/DX2                !
 ! R53   R(44,46)                1.3923         estimate D2E/DX2                !
 ! R54   R(44,47)                1.0905         estimate D2E/DX2                !
 ! R55   R(45,48)                1.3954         estimate D2E/DX2                !
 ! R56   R(45,49)                1.0901         estimate D2E/DX2                !
 ! R57   R(46,48)                1.3937         estimate D2E/DX2                !
 ! R58   R(46,50)                1.0909         estimate D2E/DX2                !
 ! R59   R(48,51)                1.0906         estimate D2E/DX2                !
 ! R60   R(52,53)                1.4026         estimate D2E/DX2                !
 ! R61   R(52,54)                1.4099         estimate D2E/DX2                !
 ! R62   R(53,55)                1.3922         estimate D2E/DX2                !
 ! R63   R(53,56)                1.0906         estimate D2E/DX2                !
 ! R64   R(54,57)                1.3908         estimate D2E/DX2                !
 ! R65   R(54,62)                1.5073         estimate D2E/DX2                !
 ! R66   R(55,58)                1.3938         estimate D2E/DX2                !
 ! R67   R(55,59)                1.091          estimate D2E/DX2                !
 ! R68   R(57,58)                1.3954         estimate D2E/DX2                !
 ! R69   R(57,60)                1.0901         estimate D2E/DX2                !
 ! R70   R(58,61)                1.0906         estimate D2E/DX2                !
 ! R71   R(62,63)                1.3338         estimate D2E/DX2                !
 ! R72   R(62,64)                1.3378         estimate D2E/DX2                !
 ! R73   R(62,65)                1.3374         estimate D2E/DX2                !
 ! R74   R(66,67)                1.3337         estimate D2E/DX2                !
 ! R75   R(66,68)                1.3377         estimate D2E/DX2                !
 ! R76   R(66,69)                1.3378         estimate D2E/DX2                !
 ! A1    A(2,1,6)              120.7504         estimate D2E/DX2                !
 ! A2    A(2,1,7)              119.6362         estimate D2E/DX2                !
 ! A3    A(6,1,7)              119.6127         estimate D2E/DX2                !
 ! A4    A(1,2,3)              120.459          estimate D2E/DX2                !
 ! A5    A(1,2,8)              119.6782         estimate D2E/DX2                !
 ! A6    A(3,2,8)              119.8601         estimate D2E/DX2                !
 ! A7    A(2,3,4)              118.6616         estimate D2E/DX2                !
 ! A8    A(2,3,9)              122.4341         estimate D2E/DX2                !
 ! A9    A(4,3,9)              118.8941         estimate D2E/DX2                !
 ! A10   A(3,4,5)              119.5713         estimate D2E/DX2                !
 ! A11   A(3,4,10)             119.706          estimate D2E/DX2                !
 ! A12   A(5,4,10)             120.7158         estimate D2E/DX2                !
 ! A13   A(4,5,6)              120.3912         estimate D2E/DX2                !
 ! A14   A(4,5,11)             118.5647         estimate D2E/DX2                !
 ! A15   A(6,5,11)             121.0422         estimate D2E/DX2                !
 ! A16   A(1,6,5)              120.145          estimate D2E/DX2                !
 ! A17   A(1,6,12)             119.6723         estimate D2E/DX2                !
 ! A18   A(5,6,12)             120.1799         estimate D2E/DX2                !
 ! A19   A(3,9,14)             119.3707         estimate D2E/DX2                !
 ! A20   A(3,9,16)             117.8085         estimate D2E/DX2                !
 ! A21   A(14,9,16)            122.8092         estimate D2E/DX2                !
 ! A22   A(4,10,13)            121.7843         estimate D2E/DX2                !
 ! A23   A(4,10,15)            119.3079         estimate D2E/DX2                !
 ! A24   A(13,10,15)           118.9            estimate D2E/DX2                !
 ! A25   A(10,13,14)           118.0298         estimate D2E/DX2                !
 ! A26   A(10,13,38)           117.1317         estimate D2E/DX2                !
 ! A27   A(14,13,38)           124.8348         estimate D2E/DX2                !
 ! A28   A(9,14,13)            122.1518         estimate D2E/DX2                !
 ! A29   A(9,14,31)            116.9681         estimate D2E/DX2                !
 ! A30   A(13,14,31)           120.7077         estimate D2E/DX2                !
 ! A31   A(9,16,17)            122.183          estimate D2E/DX2                !
 ! A32   A(9,16,18)            118.2761         estimate D2E/DX2                !
 ! A33   A(17,16,18)           119.5406         estimate D2E/DX2                !
 ! A34   A(16,17,19)           122.0117         estimate D2E/DX2                !
 ! A35   A(16,17,34)           116.722          estimate D2E/DX2                !
 ! A36   A(19,17,34)           121.0253         estimate D2E/DX2                !
 ! A37   A(16,18,20)           118.8498         estimate D2E/DX2                !
 ! A38   A(16,18,21)           122.4387         estimate D2E/DX2                !
 ! A39   A(20,18,21)           118.702          estimate D2E/DX2                !
 ! A40   A(17,19,22)           118.0601         estimate D2E/DX2                !
 ! A41   A(17,19,40)           124.9374         estimate D2E/DX2                !
 ! A42   A(22,19,40)           116.9862         estimate D2E/DX2                !
 ! A43   A(18,20,22)           119.6655         estimate D2E/DX2                !
 ! A44   A(18,20,23)           119.5537         estimate D2E/DX2                !
 ! A45   A(22,20,23)           120.7774         estimate D2E/DX2                !
 ! A46   A(18,21,24)           120.4358         estimate D2E/DX2                !
 ! A47   A(18,21,25)           119.8363         estimate D2E/DX2                !
 ! A48   A(24,21,25)           119.7245         estimate D2E/DX2                !
 ! A49   A(19,22,20)           121.7999         estimate D2E/DX2                !
 ! A50   A(19,22,26)           118.8669         estimate D2E/DX2                !
 ! A51   A(20,22,26)           119.3287         estimate D2E/DX2                !
 ! A52   A(20,23,27)           120.3878         estimate D2E/DX2                !
 ! A53   A(20,23,28)           118.5553         estimate D2E/DX2                !
 ! A54   A(27,23,28)           121.0552         estimate D2E/DX2                !
 ! A55   A(21,24,27)           120.7538         estimate D2E/DX2                !
 ! A56   A(21,24,29)           119.6459         estimate D2E/DX2                !
 ! A57   A(27,24,29)           119.5998         estimate D2E/DX2                !
 ! A58   A(23,27,24)           120.1469         estimate D2E/DX2                !
 ! A59   A(23,27,30)           120.1934         estimate D2E/DX2                !
 ! A60   A(24,27,30)           119.6574         estimate D2E/DX2                !
 ! A61   A(14,31,32)           108.9365         estimate D2E/DX2                !
 ! A62   A(14,31,33)           113.3378         estimate D2E/DX2                !
 ! A63   A(14,31,37)            98.8142         estimate D2E/DX2                !
 ! A64   A(32,31,33)           118.5927         estimate D2E/DX2                !
 ! A65   A(32,31,37)           110.4154         estimate D2E/DX2                !
 ! A66   A(33,31,37)           104.8151         estimate D2E/DX2                !
 ! A67   A(17,34,35)           108.3729         estimate D2E/DX2                !
 ! A68   A(17,34,36)           112.3042         estimate D2E/DX2                !
 ! A69   A(17,34,37)           102.1679         estimate D2E/DX2                !
 ! A70   A(35,34,36)           120.2062         estimate D2E/DX2                !
 ! A71   A(35,34,37)           108.4062         estimate D2E/DX2                !
 ! A72   A(36,34,37)           103.6912         estimate D2E/DX2                !
 ! A73   A(31,37,34)           126.2747         estimate D2E/DX2                !
 ! A74   A(31,37,70)           111.9245         estimate D2E/DX2                !
 ! A75   A(34,37,70)           111.8884         estimate D2E/DX2                !
 ! A76   A(41,42,43)           121.358          estimate D2E/DX2                !
 ! A77   A(41,42,44)           119.6777         estimate D2E/DX2                !
 ! A78   A(43,42,44)           118.9642         estimate D2E/DX2                !
 ! A79   A(42,43,45)           120.4275         estimate D2E/DX2                !
 ! A80   A(42,43,66)           119.4281         estimate D2E/DX2                !
 ! A81   A(45,43,66)           120.1444         estimate D2E/DX2                !
 ! A82   A(42,44,46)           120.3032         estimate D2E/DX2                !
 ! A83   A(42,44,47)           118.7507         estimate D2E/DX2                !
 ! A84   A(46,44,47)           120.9461         estimate D2E/DX2                !
 ! A85   A(43,45,48)           120.0042         estimate D2E/DX2                !
 ! A86   A(43,45,49)           119.703          estimate D2E/DX2                !
 ! A87   A(48,45,49)           120.2928         estimate D2E/DX2                !
 ! A88   A(44,46,48)           120.2815         estimate D2E/DX2                !
 ! A89   A(44,46,50)           119.5891         estimate D2E/DX2                !
 ! A90   A(48,46,50)           120.1294         estimate D2E/DX2                !
 ! A91   A(45,48,46)           120.0194         estimate D2E/DX2                !
 ! A92   A(45,48,51)           119.6887         estimate D2E/DX2                !
 ! A93   A(46,48,51)           120.2918         estimate D2E/DX2                !
 ! A94   A(39,52,53)           119.5354         estimate D2E/DX2                !
 ! A95   A(39,52,54)           121.4735         estimate D2E/DX2                !
 ! A96   A(53,52,54)           118.9908         estimate D2E/DX2                !
 ! A97   A(52,53,55)           120.2897         estimate D2E/DX2                !
 ! A98   A(52,53,56)           118.6895         estimate D2E/DX2                !
 ! A99   A(55,53,56)           121.0207         estimate D2E/DX2                !
 ! A100  A(52,54,57)           120.4158         estimate D2E/DX2                !
 ! A101  A(52,54,62)           119.42           estimate D2E/DX2                !
 ! A102  A(57,54,62)           120.1641         estimate D2E/DX2                !
 ! A103  A(53,55,58)           120.2741         estimate D2E/DX2                !
 ! A104  A(53,55,59)           119.5936         estimate D2E/DX2                !
 ! A105  A(58,55,59)           120.1323         estimate D2E/DX2                !
 ! A106  A(54,57,58)           120.0021         estimate D2E/DX2                !
 ! A107  A(54,57,60)           119.7104         estimate D2E/DX2                !
 ! A108  A(58,57,60)           120.2875         estimate D2E/DX2                !
 ! A109  A(55,58,57)           120.0274         estimate D2E/DX2                !
 ! A110  A(55,58,61)           120.2909         estimate D2E/DX2                !
 ! A111  A(57,58,61)           119.6816         estimate D2E/DX2                !
 ! A112  A(54,62,63)           111.932          estimate D2E/DX2                !
 ! A113  A(54,62,64)           111.9093         estimate D2E/DX2                !
 ! A114  A(54,62,65)           111.9831         estimate D2E/DX2                !
 ! A115  A(63,62,64)           107.0417         estimate D2E/DX2                !
 ! A116  A(63,62,65)           107.0539         estimate D2E/DX2                !
 ! A117  A(64,62,65)           106.5799         estimate D2E/DX2                !
 ! A118  A(43,66,67)           111.9544         estimate D2E/DX2                !
 ! A119  A(43,66,68)           111.9268         estimate D2E/DX2                !
 ! A120  A(43,66,69)           111.9596         estimate D2E/DX2                !
 ! A121  A(67,66,68)           107.0404         estimate D2E/DX2                !
 ! A122  A(67,66,69)           107.0413         estimate D2E/DX2                !
 ! A123  A(68,66,69)           106.5757         estimate D2E/DX2                !
 ! A124  L(13,38,39,33,-1)     186.4061         estimate D2E/DX2                !
 ! A125  L(38,39,52,64,-1)     181.6813         estimate D2E/DX2                !
 ! A126  L(19,40,41,36,-1)     186.8599         estimate D2E/DX2                !
 ! A127  L(40,41,42,68,-1)     181.1058         estimate D2E/DX2                !
 ! A128  L(13,38,39,33,-2)     179.6703         estimate D2E/DX2                !
 ! A129  L(38,39,52,64,-2)     179.6004         estimate D2E/DX2                !
 ! A130  L(19,40,41,36,-2)     179.6962         estimate D2E/DX2                !
 ! A131  L(40,41,42,68,-2)     179.6506         estimate D2E/DX2                !
 ! D1    D(6,1,2,3)             -0.0019         estimate D2E/DX2                !
 ! D2    D(6,1,2,8)           -179.4098         estimate D2E/DX2                !
 ! D3    D(7,1,2,3)            179.6989         estimate D2E/DX2                !
 ! D4    D(7,1,2,8)              0.291          estimate D2E/DX2                !
 ! D5    D(2,1,6,5)              0.8273         estimate D2E/DX2                !
 ! D6    D(2,1,6,12)          -179.7827         estimate D2E/DX2                !
 ! D7    D(7,1,6,5)           -178.8736         estimate D2E/DX2                !
 ! D8    D(7,1,6,12)             0.5163         estimate D2E/DX2                !
 ! D9    D(1,2,3,4)             -1.2442         estimate D2E/DX2                !
 ! D10   D(1,2,3,9)            179.9359         estimate D2E/DX2                !
 ! D11   D(8,2,3,4)            178.1626         estimate D2E/DX2                !
 ! D12   D(8,2,3,9)             -0.6573         estimate D2E/DX2                !
 ! D13   D(2,3,4,5)              1.6836         estimate D2E/DX2                !
 ! D14   D(2,3,4,10)          -177.368          estimate D2E/DX2                !
 ! D15   D(9,3,4,5)           -179.454          estimate D2E/DX2                !
 ! D16   D(9,3,4,10)             1.4944         estimate D2E/DX2                !
 ! D17   D(2,3,9,14)           176.2281         estimate D2E/DX2                !
 ! D18   D(2,3,9,16)            -2.5679         estimate D2E/DX2                !
 ! D19   D(4,3,9,14)            -2.5892         estimate D2E/DX2                !
 ! D20   D(4,3,9,16)           178.6148         estimate D2E/DX2                !
 ! D21   D(3,4,5,6)             -0.8967         estimate D2E/DX2                !
 ! D22   D(3,4,5,11)           179.5928         estimate D2E/DX2                !
 ! D23   D(10,4,5,6)           178.1451         estimate D2E/DX2                !
 ! D24   D(10,4,5,11)           -1.3654         estimate D2E/DX2                !
 ! D25   D(3,4,10,13)            0.8614         estimate D2E/DX2                !
 ! D26   D(3,4,10,15)          179.841          estimate D2E/DX2                !
 ! D27   D(5,4,10,13)         -178.1792         estimate D2E/DX2                !
 ! D28   D(5,4,10,15)            0.8004         estimate D2E/DX2                !
 ! D29   D(4,5,6,1)             -0.364          estimate D2E/DX2                !
 ! D30   D(4,5,6,12)          -179.7508         estimate D2E/DX2                !
 ! D31   D(11,5,6,1)           179.1342         estimate D2E/DX2                !
 ! D32   D(11,5,6,12)           -0.2526         estimate D2E/DX2                !
 ! D33   D(3,9,14,13)            1.4164         estimate D2E/DX2                !
 ! D34   D(3,9,14,31)         -173.8388         estimate D2E/DX2                !
 ! D35   D(16,9,14,13)        -179.8506         estimate D2E/DX2                !
 ! D36   D(16,9,14,31)           4.8941         estimate D2E/DX2                !
 ! D37   D(3,9,16,17)          108.9538         estimate D2E/DX2                !
 ! D38   D(3,9,16,18)          -70.8288         estimate D2E/DX2                !
 ! D39   D(14,9,16,17)         -69.7979         estimate D2E/DX2                !
 ! D40   D(14,9,16,18)         110.4195         estimate D2E/DX2                !
 ! D41   D(4,10,13,14)          -2.0509         estimate D2E/DX2                !
 ! D42   D(4,10,13,38)         178.6145         estimate D2E/DX2                !
 ! D43   D(15,10,13,14)        178.9655         estimate D2E/DX2                !
 ! D44   D(15,10,13,38)         -0.3691         estimate D2E/DX2                !
 ! D45   D(10,13,14,9)           0.9037         estimate D2E/DX2                !
 ! D46   D(10,13,14,31)        175.9848         estimate D2E/DX2                !
 ! D47   D(38,13,14,9)        -179.8178         estimate D2E/DX2                !
 ! D48   D(38,13,14,31)         -4.7367         estimate D2E/DX2                !
 ! D49   D(10,13,52,53)       -179.0503         estimate D2E/DX2                !
 ! D50   D(10,13,52,54)          0.5108         estimate D2E/DX2                !
 ! D51   D(14,13,52,53)          1.501          estimate D2E/DX2                !
 ! D52   D(14,13,52,54)       -178.9379         estimate D2E/DX2                !
 ! D53   D(9,14,31,32)         -46.6439         estimate D2E/DX2                !
 ! D54   D(9,14,31,33)         179.0035         estimate D2E/DX2                !
 ! D55   D(9,14,31,37)          68.5948         estimate D2E/DX2                !
 ! D56   D(13,14,31,32)        138.0282         estimate D2E/DX2                !
 ! D57   D(13,14,31,33)          3.6755         estimate D2E/DX2                !
 ! D58   D(13,14,31,37)       -106.7332         estimate D2E/DX2                !
 ! D59   D(9,16,17,19)        -177.6735         estimate D2E/DX2                !
 ! D60   D(9,16,17,34)           7.9138         estimate D2E/DX2                !
 ! D61   D(18,16,17,19)          2.1064         estimate D2E/DX2                !
 ! D62   D(18,16,17,34)       -172.3063         estimate D2E/DX2                !
 ! D63   D(9,16,18,20)         176.9691         estimate D2E/DX2                !
 ! D64   D(9,16,18,21)          -4.1679         estimate D2E/DX2                !
 ! D65   D(17,16,18,20)         -2.8194         estimate D2E/DX2                !
 ! D66   D(17,16,18,21)        176.0437         estimate D2E/DX2                !
 ! D67   D(16,17,19,22)          0.3002         estimate D2E/DX2                !
 ! D68   D(16,17,19,40)        178.7842         estimate D2E/DX2                !
 ! D69   D(34,17,19,22)        174.4757         estimate D2E/DX2                !
 ! D70   D(34,17,19,40)         -7.0403         estimate D2E/DX2                !
 ! D71   D(16,17,34,35)        -50.4455         estimate D2E/DX2                !
 ! D72   D(16,17,34,36)        174.3804         estimate D2E/DX2                !
 ! D73   D(16,17,34,37)         63.8833         estimate D2E/DX2                !
 ! D74   D(19,17,34,35)        135.0829         estimate D2E/DX2                !
 ! D75   D(19,17,34,36)         -0.0912         estimate D2E/DX2                !
 ! D76   D(19,17,34,37)       -110.5883         estimate D2E/DX2                !
 ! D77   D(16,18,20,22)          1.1954         estimate D2E/DX2                !
 ! D78   D(16,18,20,23)       -179.4685         estimate D2E/DX2                !
 ! D79   D(21,18,20,22)       -177.7106         estimate D2E/DX2                !
 ! D80   D(21,18,20,23)          1.6255         estimate D2E/DX2                !
 ! D81   D(16,18,21,24)        179.989          estimate D2E/DX2                !
 ! D82   D(16,18,21,25)         -0.6887         estimate D2E/DX2                !
 ! D83   D(20,18,21,24)         -1.1464         estimate D2E/DX2                !
 ! D84   D(20,18,21,25)        178.1759         estimate D2E/DX2                !
 ! D85   D(17,19,22,20)         -1.9956         estimate D2E/DX2                !
 ! D86   D(17,19,22,26)        178.7847         estimate D2E/DX2                !
 ! D87   D(40,19,22,20)        179.399          estimate D2E/DX2                !
 ! D88   D(40,19,22,26)          0.1794         estimate D2E/DX2                !
 ! D89   D(17,19,42,43)       -176.6958         estimate D2E/DX2                !
 ! D90   D(17,19,42,44)          3.384          estimate D2E/DX2                !
 ! D91   D(22,19,42,43)          1.5047         estimate D2E/DX2                !
 ! D92   D(22,19,42,44)       -178.4155         estimate D2E/DX2                !
 ! D93   D(18,20,22,19)          1.2446         estimate D2E/DX2                !
 ! D94   D(18,20,22,26)       -179.5393         estimate D2E/DX2                !
 ! D95   D(23,20,22,19)       -178.0832         estimate D2E/DX2                !
 ! D96   D(23,20,22,26)          1.1329         estimate D2E/DX2                !
 ! D97   D(18,20,23,27)         -0.9038         estimate D2E/DX2                !
 ! D98   D(18,20,23,28)        179.5791         estimate D2E/DX2                !
 ! D99   D(22,20,23,27)        178.4247         estimate D2E/DX2                !
 ! D100  D(22,20,23,28)         -1.0923         estimate D2E/DX2                !
 ! D101  D(18,21,24,27)         -0.0738         estimate D2E/DX2                !
 ! D102  D(18,21,24,29)        179.6568         estimate D2E/DX2                !
 ! D103  D(25,21,24,27)       -179.3968         estimate D2E/DX2                !
 ! D104  D(25,21,24,29)          0.3338         estimate D2E/DX2                !
 ! D105  D(20,23,27,24)         -0.3281         estimate D2E/DX2                !
 ! D106  D(20,23,27,30)       -179.7675         estimate D2E/DX2                !
 ! D107  D(28,23,27,24)        179.1767         estimate D2E/DX2                !
 ! D108  D(28,23,27,30)         -0.2627         estimate D2E/DX2                !
 ! D109  D(21,24,27,23)          0.8311         estimate D2E/DX2                !
 ! D110  D(21,24,27,30)       -179.7265         estimate D2E/DX2                !
 ! D111  D(29,24,27,23)       -178.8996         estimate D2E/DX2                !
 ! D112  D(29,24,27,30)          0.5428         estimate D2E/DX2                !
 ! D113  D(14,31,37,34)        -42.6            estimate D2E/DX2                !
 ! D114  D(14,31,37,70)        174.8523         estimate D2E/DX2                !
 ! D115  D(32,31,37,34)         71.4869         estimate D2E/DX2                !
 ! D116  D(32,31,37,70)        -71.0608         estimate D2E/DX2                !
 ! D117  D(33,31,37,34)       -159.7089         estimate D2E/DX2                !
 ! D118  D(33,31,37,70)         57.7434         estimate D2E/DX2                !
 ! D119  D(17,34,37,31)        -36.1655         estimate D2E/DX2                !
 ! D120  D(17,34,37,70)        106.3932         estimate D2E/DX2                !
 ! D121  D(35,34,37,31)         78.1388         estimate D2E/DX2                !
 ! D122  D(35,34,37,70)       -139.3025         estimate D2E/DX2                !
 ! D123  D(36,34,37,31)       -153.0458         estimate D2E/DX2                !
 ! D124  D(36,34,37,70)        -10.487          estimate D2E/DX2                !
 ! D125  D(41,42,43,45)       -179.9183         estimate D2E/DX2                !
 ! D126  D(41,42,43,66)          0.1562         estimate D2E/DX2                !
 ! D127  D(44,42,43,45)          0.0187         estimate D2E/DX2                !
 ! D128  D(44,42,43,66)       -179.9068         estimate D2E/DX2                !
 ! D129  D(41,42,44,46)        179.9463         estimate D2E/DX2                !
 ! D130  D(41,42,44,47)         -0.0225         estimate D2E/DX2                !
 ! D131  D(43,42,44,46)          0.0082         estimate D2E/DX2                !
 ! D132  D(43,42,44,47)       -179.9606         estimate D2E/DX2                !
 ! D133  D(42,43,45,48)         -0.0263         estimate D2E/DX2                !
 ! D134  D(42,43,45,49)        179.9994         estimate D2E/DX2                !
 ! D135  D(66,43,45,48)        179.8986         estimate D2E/DX2                !
 ! D136  D(66,43,45,49)         -0.0756         estimate D2E/DX2                !
 ! D137  D(42,43,66,67)       -179.9601         estimate D2E/DX2                !
 ! D138  D(42,43,66,68)         59.8504         estimate D2E/DX2                !
 ! D139  D(42,43,66,69)        -59.7464         estimate D2E/DX2                !
 ! D140  D(45,43,66,67)          0.1142         estimate D2E/DX2                !
 ! D141  D(45,43,66,68)       -120.0753         estimate D2E/DX2                !
 ! D142  D(45,43,66,69)        120.3279         estimate D2E/DX2                !
 ! D143  D(42,44,46,48)         -0.0276         estimate D2E/DX2                !
 ! D144  D(42,44,46,50)        179.9639         estimate D2E/DX2                !
 ! D145  D(47,44,46,48)        179.9405         estimate D2E/DX2                !
 ! D146  D(47,44,46,50)         -0.068          estimate D2E/DX2                !
 ! D147  D(43,45,48,46)          0.0069         estimate D2E/DX2                !
 ! D148  D(43,45,48,51)       -179.9717         estimate D2E/DX2                !
 ! D149  D(49,45,48,46)        179.981          estimate D2E/DX2                !
 ! D150  D(49,45,48,51)          0.0024         estimate D2E/DX2                !
 ! D151  D(44,46,48,45)          0.0201         estimate D2E/DX2                !
 ! D152  D(44,46,48,51)        179.9986         estimate D2E/DX2                !
 ! D153  D(50,46,48,45)       -179.9714         estimate D2E/DX2                !
 ! D154  D(50,46,48,51)          0.0072         estimate D2E/DX2                !
 ! D155  D(39,52,53,55)        179.8488         estimate D2E/DX2                !
 ! D156  D(39,52,53,56)         -0.079          estimate D2E/DX2                !
 ! D157  D(54,52,53,55)          0.0048         estimate D2E/DX2                !
 ! D158  D(54,52,53,56)       -179.923          estimate D2E/DX2                !
 ! D159  D(39,52,54,57)       -179.8351         estimate D2E/DX2                !
 ! D160  D(39,52,54,62)          0.2832         estimate D2E/DX2                !
 ! D161  D(53,52,54,57)          0.0057         estimate D2E/DX2                !
 ! D162  D(53,52,54,62)       -179.876          estimate D2E/DX2                !
 ! D163  D(52,53,55,58)         -0.0174         estimate D2E/DX2                !
 ! D164  D(52,53,55,59)       -179.9839         estimate D2E/DX2                !
 ! D165  D(56,53,55,58)        179.9086         estimate D2E/DX2                !
 ! D166  D(56,53,55,59)         -0.0579         estimate D2E/DX2                !
 ! D167  D(52,54,57,58)         -0.0036         estimate D2E/DX2                !
 ! D168  D(52,54,57,60)        179.9783         estimate D2E/DX2                !
 ! D169  D(62,54,57,58)        179.8772         estimate D2E/DX2                !
 ! D170  D(62,54,57,60)         -0.1409         estimate D2E/DX2                !
 ! D171  D(52,54,62,63)       -179.6067         estimate D2E/DX2                !
 ! D172  D(52,54,62,64)         60.2301         estimate D2E/DX2                !
 ! D173  D(52,54,62,65)        -59.3761         estimate D2E/DX2                !
 ! D174  D(57,54,62,63)          0.5113         estimate D2E/DX2                !
 ! D175  D(57,54,62,64)       -119.652          estimate D2E/DX2                !
 ! D176  D(57,54,62,65)        120.7419         estimate D2E/DX2                !
 ! D177  D(53,55,58,57)          0.0195         estimate D2E/DX2                !
 ! D178  D(53,55,58,61)       -179.9497         estimate D2E/DX2                !
 ! D179  D(59,55,58,57)        179.9858         estimate D2E/DX2                !
 ! D180  D(59,55,58,61)          0.0167         estimate D2E/DX2                !
 ! D181  D(54,57,58,55)         -0.009          estimate D2E/DX2                !
 ! D182  D(54,57,58,61)        179.9604         estimate D2E/DX2                !
 ! D183  D(60,57,58,55)       -179.9908         estimate D2E/DX2                !
 ! D184  D(60,57,58,61)         -0.0214         estimate D2E/DX2                !
 --------------------------------------------------------------------------------
 Trust Radius=3.00D-01 FncErr=1.00D-07 GrdErr=1.00D-06 EigMax=2.50D+02 EigMin=1.00D-04
 Number of steps in this run=    401 maximum allowed number of steps=    420.
 GradGradGradGradGradGradGradGradGradGradGradGradGradGradGradGradGradGrad

 Leave Link  103 at Tue Jun 11 17:54:47 2024, MaxMem=  8589934592 cpu:               1.7 elap:               0.1
 (Enter /opt/packages/gaussian/g16RevC.01/g16/l202.exe)
 Symmetry turned off by external request.
 Stoichiometry    C38H19F6NO4S2
 Framework group  C1[X(C38H19F6NO4S2)]
 Deg. of freedom   204
 Full point group                 C1      NOp   1
                          Input orientation:                          
 ---------------------------------------------------------------------
 Center     Atomic      Atomic             Coordinates (Angstroms)
 Number     Number       Type             X           Y           Z
 ---------------------------------------------------------------------
      1          6           0       -2.615370    6.261715   -1.569408
      2          6           0       -2.613563    5.077212   -0.872681
      3          6           0       -1.387824    4.488725   -0.453814
      4          6           0       -0.166672    5.137939   -0.794650
      5          6           0       -0.200954    6.367750   -1.508236
      6          6           0       -1.400047    6.919210   -1.883888
      7          1           0       -3.562723    6.698501   -1.888318
      8          1           0       -3.558152    4.581425   -0.648552
      9          6           0       -1.336677    3.256070    0.275733
     10          6           0        1.065668    4.543990   -0.438328
     11          1           0        0.744289    6.854452   -1.755016
     12          1           0       -1.422161    7.860643   -2.434694
     13          6           0        1.125358    3.331190    0.222471
     14          6           0       -0.107961    2.700287    0.583334
     15          1           0        1.997497    5.045786   -0.705027
     16          6           0       -2.638579    2.609113    0.649720
     17          6           0       -3.081736    1.444928    0.049364
     18          6           0       -3.440031    3.231837    1.660138
     19          6           0       -4.345923    0.857776    0.373749
     20          6           0       -4.707402    2.664993    1.978354
     21          6           0       -3.007447    4.382804    2.375399
     22          6           0       -5.136167    1.493102    1.314512
     23          6           0       -5.520621    3.277834    2.971425
     24          6           0       -3.810520    4.947351    3.337147
     25          1           0       -2.027899    4.814122    2.167692
     26          1           0       -6.111646    1.067661    1.557204
     27          6           0       -5.082534    4.396919    3.633752
     28          1           0       -6.491652    2.833880    3.197412
     29          1           0       -3.463568    5.826573    3.881795
     30          1           0       -5.707284    4.862199    4.397568
     31         16           0       -0.117479    1.083738    1.342827
     32          8           0       -1.094804    1.072704    2.413415
     33          8           0        1.205863    0.568756    1.609312
     34         16           0       -1.932182    0.615308   -1.045793
     35          8           0       -1.415654    1.585737   -1.983850
     36          8           0       -2.441613   -0.652428   -1.517480
     37          7           0       -0.679212    0.175504    0.016314
     38          6           0        2.426393    2.806585    0.507900
     39          6           0        3.578133    2.472189    0.687637
     40          6           0       -4.876635   -0.329568   -0.225596
     41          6           0       -5.446126   -1.310505   -0.655157
     42          6           0       -6.094636   -2.475885   -1.176963
     43          6           0       -7.390329   -2.843670   -0.759269
     44          6           0       -5.433632   -3.273861   -2.122295
     45          6           0       -8.001311   -3.980534   -1.277549
     46          6           0       -6.051456   -4.410278   -2.637359
     47          1           0       -4.431512   -2.986578   -2.442356
     48          6           0       -7.332181   -4.765269   -2.217592
     49          1           0       -9.003229   -4.253864   -0.946331
     50          1           0       -5.526874   -5.022228   -3.372545
     51          1           0       -7.816317   -5.655425   -2.620970
     52          6           0        4.924137    2.038554    0.912538
     53          6           0        5.157791    0.814366    1.556111
     54          6           0        6.026288    2.813965    0.498063
     55          6           0        6.460136    0.376060    1.779990
     56          1           0        4.301690    0.217957    1.873497
     57          6           0        7.324699    2.369909    0.724744
     58          6           0        7.542937    1.149998    1.366098
     59          1           0        6.628788   -0.578087    2.281370
     60          1           0        8.168396    2.978511    0.399145
     61          1           0        8.563268    0.806521    1.540606
     62          6           0        5.786361    4.132381   -0.191900
     63          9           0        6.928426    4.735088   -0.525644
     64          9           0        5.105168    4.984383    0.582538
     65          9           0        5.076387    3.987263   -1.315988
     66          6           0       -8.111175   -1.992406    0.254669
     67          9           0       -9.320512   -2.475755    0.542007
     68          9           0       -8.282876   -0.738210   -0.177725
     69          9           0       -7.437880   -1.909768    1.407712
     70          1           0       -0.681682   -0.831942    0.214925
 ---------------------------------------------------------------------
 Rotational constants (GHZ):           0.0948495           0.0256977           0.0228959
 Leave Link  202 at Tue Jun 11 17:54:48 2024, MaxMem=  8589934592 cpu:               2.1 elap:               0.1
 (Enter /opt/packages/gaussian/g16RevC.01/g16/l301.exe)
 General basis read from cards:  (5D, 7F)
 Centers:       1      2      3      4      5      6      9     10     13     14
 Centers:      16     17     18     19     20     21     22     23     24     27
 Centers:      38     39     40     41     42     43     44     45     46     48
 Centers:      52     53     54     55     57     58     62     66      7      8
 Centers:      11     12     15     25     26     28     29     30     47     49
 Centers:      50     51     56     59     60     61     70     37     63     64
 Centers:      65     67     68     69     32     33     35     36
 def2svp
 ****
 Centers:      31     34
 def2tzvp
 ****
 ======================================================================================================
                                       Pseudopotential Parameters
 ======================================================================================================
  Center     Atomic      Valence      Angular      Power
  Number     Number     Electrons     Momentum     of R      Exponent        Coefficient   SO-Coeffient
 ======================================================================================================
    1          6
                                   No pseudopotential on this center.
    2          6
                                   No pseudopotential on this center.
    3          6
                                   No pseudopotential on this center.
    4          6
                                   No pseudopotential on this center.
    5          6
                                   No pseudopotential on this center.
    6          6
                                   No pseudopotential on this center.
    7          1
                                   No pseudopotential on this center.
    8          1
                                   No pseudopotential on this center.
    9          6
                                   No pseudopotential on this center.
   10          6
                                   No pseudopotential on this center.
   11          1
                                   No pseudopotential on this center.
   12          1
                                   No pseudopotential on this center.
   13          6
                                   No pseudopotential on this center.
   14          6
                                   No pseudopotential on this center.
   15          1
                                   No pseudopotential on this center.
   16          6
                                   No pseudopotential on this center.
   17          6
                                   No pseudopotential on this center.
   18          6
                                   No pseudopotential on this center.
   19          6
                                   No pseudopotential on this center.
   20          6
                                   No pseudopotential on this center.
   21          6
                                   No pseudopotential on this center.
   22          6
                                   No pseudopotential on this center.
   23          6
                                   No pseudopotential on this center.
   24          6
                                   No pseudopotential on this center.
   25          1
                                   No pseudopotential on this center.
   26          1
                                   No pseudopotential on this center.
   27          6
                                   No pseudopotential on this center.
   28          1
                                   No pseudopotential on this center.
   29          1
                                   No pseudopotential on this center.
   30          1
                                   No pseudopotential on this center.
   31         16
                                   No pseudopotential on this center.
   32          8
                                   No pseudopotential on this center.
   33          8
                                   No pseudopotential on this center.
   34         16
                                   No pseudopotential on this center.
   35          8
                                   No pseudopotential on this center.
   36          8
                                   No pseudopotential on this center.
   37          7
                                   No pseudopotential on this center.
   38          6
                                   No pseudopotential on this center.
   39          6
                                   No pseudopotential on this center.
   40          6
                                   No pseudopotential on this center.
   41          6
                                   No pseudopotential on this center.
   42          6
                                   No pseudopotential on this center.
   43          6
                                   No pseudopotential on this center.
   44          6
                                   No pseudopotential on this center.
   45          6
                                   No pseudopotential on this center.
   46          6
                                   No pseudopotential on this center.
   47          1
                                   No pseudopotential on this center.
   48          6
                                   No pseudopotential on this center.
   49          1
                                   No pseudopotential on this center.
   50          1
                                   No pseudopotential on this center.
   51          1
                                   No pseudopotential on this center.
   52          6
                                   No pseudopotential on this center.
   53          6
                                   No pseudopotential on this center.
   54          6
                                   No pseudopotential on this center.
   55          6
                                   No pseudopotential on this center.
   56          1
                                   No pseudopotential on this center.
   57          6
                                   No pseudopotential on this center.
   58          6
                                   No pseudopotential on this center.
   59          1
                                   No pseudopotential on this center.
   60          1
                                   No pseudopotential on this center.
   61          1
                                   No pseudopotential on this center.
   62          6
                                   No pseudopotential on this center.
   63          9
                                   No pseudopotential on this center.
   64          9
                                   No pseudopotential on this center.
   65          9
                                   No pseudopotential on this center.
   66          6
                                   No pseudopotential on this center.
   67          9
                                   No pseudopotential on this center.
   68          9
                                   No pseudopotential on this center.
   69          9
                                   No pseudopotential on this center.
   70          1
                                   No pseudopotential on this center.
 ======================================================================================================
 Ernie: Thresh=  0.10000D-02 Tol=  0.10000D-05 Strict=F.
   855 basis functions,  1496 primitive gaussians,   914 cartesian basis functions
   186 alpha electrons      186 beta electrons
       nuclear repulsion energy      6977.9253065730 Hartrees.
 IExCor= 4336 DFT=T Ex+Corr=M062X ExCW=0 ScaHFX=  0.540000
 ScaDFX=  1.000000  1.000000  1.000000  1.000000 ScalE2=  1.000000  1.000000
 IRadAn=      5 IRanWt=     -1 IRanGd=            0 ICorTp=0 IEmpDi=131
 NAtoms=   70 NActive=   70 NUniq=   70 SFac= 1.00D+00 NAtFMM=   60 NAOKFM=T Big=T
 Integral buffers will be    131072 words long.
 Raffenetti 2 integral format.
 Two-electron integral symmetry is turned off.
 R6Disp:  Grimme-D3 Dispersion energy=       -0.0068072510 Hartrees.
 Nuclear repulsion after empirical dispersion term =     6977.9184993220 Hartrees.
 ------------------------------------------------------------------------------
 Polarizable Continuum Model (PCM)
 =================================
 Model                : PCM.
 Atomic radii         : SMD-Coulomb.
 Polarization charges : Total charges.
 Charge compensation  : None.
 Solution method      : On-the-fly selection.
 Cavity type          : VdW (van der Waals Surface) (Alpha=1.000).
 Cavity algorithm     : GePol (No added spheres)
                        Default sphere list used, NSphG=   70.
                        Lebedev-Laikov grids with approx.  5.0 points / Ang**2.
                        Smoothing algorithm: York/Karplus (Gamma=1.0000).
                        Polarization charges: spherical gaussians, with
                                              point-specific exponents (IZeta= 3).
                        Self-potential: point-specific (ISelfS= 7).
                        Self-field    : sphere-specific E.n sum rule (ISelfD= 2).
 1st derivatives      : Analytical E(r).r(x)/FMM algorithm (CHGder, D1EAlg=3).
                        Cavity 1st derivative terms included.
 Solvent              : PropylEthanoate, Eps=   5.520500 Eps(inf)=   1.916010
 ------------------------------------------------------------------------------
 GePol: Number of generator spheres                  =      70
 GePol: Total number of spheres                      =      70
 GePol: Number of exposed spheres                    =      70 (100.00%)
 GePol: Number of points                             =    5620
 GePol: Average weight of points                     =       0.12
 GePol: Minimum weight of points                     =   0.56D-10
 GePol: Maximum weight of points                     =    0.21501
 GePol: Number of points with low weight             =     343
 GePol: Fraction of low-weight points (<1% of avg)   =       6.10%
 GePol: Cavity surface area                          =    659.438 Ang**2
 GePol: Cavity volume                                =    708.615 Ang**3
 ------------------------------------------------------------------------------
 Atomic radii for non-electrostatic terms: SMD-CDS.
 ------------------------------------------------------------------------------
 PCM non-electrostatic energy =        -0.0158212955 Hartrees.
 Nuclear repulsion after PCM non-electrostatic terms =     6977.9026780265 Hartrees.
 Leave Link  301 at Tue Jun 11 17:54:48 2024, MaxMem=  8589934592 cpu:               6.4 elap:               0.3
 (Enter /opt/packages/gaussian/g16RevC.01/g16/l302.exe)
 NPDir=0 NMtPBC=     1 NCelOv=     1 NCel=       1 NClECP=     1 NCelD=      1
         NCelK=      1 NCelE2=     1 NClLst=     1 CellRange=     0.0.
 One-electron integrals computed using PRISM.
   1 Symmetry operations used in ECPInt.
 ECPInt:  NShTT=   71253 NPrTT=  272719 LenC2=   48005 LenP2D=  111904.
 LDataN:  DoStor=T MaxTD1= 6 Len=  172
 NBasis=   855 RedAO= T EigKep=  1.60D-04  NBF=   855
 NBsUse=   855 1.00D-06 EigRej= -1.00D+00 NBFU=   855
 Precomputing XC quadrature grid using
 IXCGrd= 4 IRadAn=           5 IRanWt=          -1 IRanGd=           0 AccXCQ= 0.00D+00.
 Generated NRdTot=       0 NPtTot=           0 NUsed=           0 NTot=          32
 NSgBfM=   839   835   838   839   839 MxSgAt=    70 MxSgA2=    70.
 Leave Link  302 at Tue Jun 11 17:54:50 2024, MaxMem=  8589934592 cpu:              52.6 elap:               1.8
 (Enter /opt/packages/gaussian/g16RevC.01/g16/l303.exe)
 DipDrv:  MaxL=1.
 Leave Link  303 at Tue Jun 11 17:54:50 2024, MaxMem=  8589934592 cpu:               6.8 elap:               0.3
 (Enter /opt/packages/gaussian/g16RevC.01/g16/l401.exe)
 ExpMin= 1.08D-01 ExpMax= 6.07D+04 ExpMxC= 2.07D+03 IAcc=3 IRadAn=         5 AccDes= 0.00D+00
 Harris functional with IExCor= 1009 and IRadAn=       5 diagonalized for initial guess.
 HarFok:  IExCor= 1009 AccDes= 0.00D+00 IRadAn=         5 IDoV= 1 UseB2=F ITyADJ=14
 ICtDFT=  3500011 ScaDFX=  1.000000  1.000000  1.000000  1.000000
 FoFCou: FMM=F IPFlag=           0 FMFlag=      100000 FMFlg1=        2001
         NFxFlg=           0 DoJE=T BraDBF=F KetDBF=T FulRan=T
         wScrn=  0.000000 ICntrl=       500 IOpCl=  0 I1Cent=   200000004 NGrid=           0
         NMat0=    1 NMatS0=      1 NMatT0=    0 NMatD0=    1 NMtDS0=    0 NMtDT0=    0
 Symmetry not used in FoFCou.
 Harris En= -3206.23822131407    
 JPrj=0 DoOrth=F DoCkMO=F.
 Leave Link  401 at Tue Jun 11 17:54:54 2024, MaxMem=  8589934592 cpu:              95.0 elap:               3.0
 (Enter /opt/packages/gaussian/g16RevC.01/g16/l502.exe)
 Two-electron integral symmetry not used.
 Closed shell SCF:
 Using DIIS extrapolation, IDIIS=  1040.
 NGot=  8589934592 LenX=  8588226036 LenY=  8587389726
 Requested convergence on RMS density matrix=1.00D-08 within 128 cycles.
 Requested convergence on MAX density matrix=1.00D-06.
 Requested convergence on             energy=1.00D-06.
 No special actions if energy rises.
 Fock matrices will be formed incrementally for  20 cycles.

 Cycle   1  Pass 1  IDiag  1:
 FoFJK:  IHMeth= 1 ICntrl=       0 DoSepK=F KAlg= 0 I1Cent=           0 FoldK=F
 IRaf= 720000000 NMat=       1 IRICut=       1 DoRegI=T DoRafI=F ISym2E= 0 IDoP0=0 IntGTp=1.
 FoFCou: FMM=T IPFlag=           0 FMFlag=      100000 FMFlg1=        2001
         NFxFlg=           0 DoJE=F BraDBF=F KetDBF=F FulRan=T
         wScrn=  0.000000 ICntrl=         0 IOpCl=  0 I1Cent=           0 NGrid=           0
         NMat0=    1 NMatS0=      1 NMatT0=    0 NMatD0=    1 NMtDS0=    0 NMtDT0=    0
 Symmetry not used in FoFCou.
 FMM levels:  10  Number of levels for PrismC:   9
 Inv3:  Mode=1 IEnd=    94753200.
 Iteration    1 A*A^-1 deviation from unit magnitude is 3.55D-15 for    127.
 Iteration    1 A*A^-1 deviation from orthogonality  is 2.00D-15 for   4006   1281.
 Iteration    1 A^-1*A deviation from unit magnitude is 3.55D-15 for    127.
 Iteration    1 A^-1*A deviation from orthogonality  is 1.42D-13 for   1706   1671.
 E= -3206.75600941546    
 DIIS: error= 3.47D-02 at cycle   1 NSaved=   1.
 NSaved= 1 IEnMin= 1 EnMin= -3206.75600941546     IErMin= 1 ErrMin= 3.47D-02
 ErrMax= 3.47D-02  0.00D+00 EMaxC= 1.00D-01 BMatC= 1.33D+00 BMatP= 1.33D+00
 IDIUse=3 WtCom= 6.53D-01 WtEn= 3.47D-01
 Coeff-Com:  0.100D+01
 Coeff-En:   0.100D+01
 Coeff:      0.100D+01
 Gap=     0.226 Goal=   None    Shift=    0.000
 GapD=    0.226 DampG=1.000 DampE=0.500 DampFc=0.5000 IDamp=-1.
 Damping current iteration by 5.00D-01
 RMSDP=3.02D-03 MaxDP=2.94D-01              OVMax= 2.08D-01

 Cycle   2  Pass 1  IDiag  1:
 RMSU=  1.46D-03    CP:  9.72D-01
 E= -3207.18135125185     Delta-E=       -0.425341836384 Rises=F Damp=T
 DIIS: error= 1.26D-02 at cycle   2 NSaved=   2.
 NSaved= 2 IEnMin= 2 EnMin= -3207.18135125185     IErMin= 2 ErrMin= 1.26D-02
 ErrMax= 1.26D-02  0.00D+00 EMaxC= 1.00D-01 BMatC= 1.43D-01 BMatP= 1.33D+00
 IDIUse=3 WtCom= 8.74D-01 WtEn= 1.26D-01
 Coeff-Com:  0.826D-01 0.917D+00
 Coeff-En:   0.156D+00 0.844D+00
 Coeff:      0.919D-01 0.908D+00
 Gap=     0.273 Goal=   None    Shift=    0.000
 RMSDP=1.17D-03 MaxDP=9.99D-02 DE=-4.25D-01 OVMax= 1.65D-01

 Cycle   3  Pass 1  IDiag  1:
 RMSU=  1.12D-03    CP:  9.49D-01  1.05D+00
 E= -3207.74117943413     Delta-E=       -0.559828182288 Rises=F Damp=F
 DIIS: error= 1.41D-02 at cycle   3 NSaved=   3.
 NSaved= 3 IEnMin= 3 EnMin= -3207.74117943413     IErMin= 2 ErrMin= 1.26D-02
 ErrMax= 1.41D-02  0.00D+00 EMaxC= 1.00D-01 BMatC= 1.05D-01 BMatP= 1.43D-01
 IDIUse=3 WtCom= 8.59D-01 WtEn= 1.41D-01
 Coeff-Com: -0.549D-01 0.466D+00 0.589D+00
 Coeff-En:   0.000D+00 0.000D+00 0.100D+01
 Coeff:     -0.471D-01 0.401D+00 0.647D+00
 Gap=     0.217 Goal=   None    Shift=    0.000
 RMSDP=5.92D-04 MaxDP=3.78D-02 DE=-5.60D-01 OVMax= 4.66D-02

 Cycle   4  Pass 1  IDiag  1:
 RMSU=  3.54D-04    CP:  9.54D-01  1.16D+00  6.06D-01
 E= -3207.81813816551     Delta-E=       -0.076958731378 Rises=F Damp=F
 DIIS: error= 3.76D-03 at cycle   4 NSaved=   4.
 NSaved= 4 IEnMin= 4 EnMin= -3207.81813816551     IErMin= 4 ErrMin= 3.76D-03
 ErrMax= 3.76D-03  0.00D+00 EMaxC= 1.00D-01 BMatC= 1.64D-02 BMatP= 1.05D-01
 IDIUse=3 WtCom= 9.62D-01 WtEn= 3.76D-02
 Coeff-Com: -0.221D-01 0.901D-01 0.324D+00 0.608D+00
 Coeff-En:   0.000D+00 0.000D+00 0.118D+00 0.882D+00
 Coeff:     -0.213D-01 0.867D-01 0.316D+00 0.618D+00
 Gap=     0.217 Goal=   None    Shift=    0.000
 RMSDP=1.97D-04 MaxDP=1.73D-02 DE=-7.70D-02 OVMax= 1.73D-02

 Cycle   5  Pass 1  IDiag  1:
 RMSU=  8.93D-05    CP:  9.53D-01  1.12D+00  7.15D-01  6.74D-01
 E= -3207.83174311367     Delta-E=       -0.013604948159 Rises=F Damp=F
 DIIS: error= 6.47D-04 at cycle   5 NSaved=   5.
 NSaved= 5 IEnMin= 5 EnMin= -3207.83174311367     IErMin= 5 ErrMin= 6.47D-04
 ErrMax= 6.47D-04  0.00D+00 EMaxC= 1.00D-01 BMatC= 8.06D-04 BMatP= 1.64D-02
 IDIUse=3 WtCom= 9.94D-01 WtEn= 6.47D-03
 Coeff-Com: -0.637D-02 0.889D-02 0.979D-01 0.286D+00 0.613D+00
 Coeff-En:   0.000D+00 0.000D+00 0.000D+00 0.000D+00 0.100D+01
 Coeff:     -0.632D-02 0.884D-02 0.973D-01 0.284D+00 0.616D+00
 Gap=     0.214 Goal=   None    Shift=    0.000
 RMSDP=4.56D-05 MaxDP=3.47D-03 DE=-1.36D-02 OVMax= 5.03D-03

 Cycle   6  Pass 1  IDiag  1:
 RMSU=  2.94D-05    CP:  9.53D-01  1.13D+00  7.12D-01  7.19D-01  7.03D-01
 E= -3207.83246656325     Delta-E=       -0.000723449584 Rises=F Damp=F
 DIIS: error= 2.65D-04 at cycle   6 NSaved=   6.
 NSaved= 6 IEnMin= 6 EnMin= -3207.83246656325     IErMin= 6 ErrMin= 2.65D-04
 ErrMax= 2.65D-04  0.00D+00 EMaxC= 1.00D-01 BMatC= 7.43D-05 BMatP= 8.06D-04
 IDIUse=3 WtCom= 9.97D-01 WtEn= 2.65D-03
 Coeff-Com: -0.160D-02-0.139D-02 0.218D-01 0.863D-01 0.296D+00 0.599D+00
 Coeff-En:   0.000D+00 0.000D+00 0.000D+00 0.000D+00 0.000D+00 0.100D+01
 Coeff:     -0.160D-02-0.139D-02 0.217D-01 0.861D-01 0.296D+00 0.600D+00
 Gap=     0.215 Goal=   None    Shift=    0.000
 RMSDP=1.40D-05 MaxDP=1.26D-03 DE=-7.23D-04 OVMax= 2.34D-03

 Cycle   7  Pass 1  IDiag  1:
 RMSU=  1.08D-05    CP:  9.53D-01  1.13D+00  7.15D-01  7.19D-01  7.57D-01
                    CP:  7.61D-01
 E= -3207.83253488228     Delta-E=       -0.000068319021 Rises=F Damp=F
 DIIS: error= 1.14D-04 at cycle   7 NSaved=   7.
 NSaved= 7 IEnMin= 7 EnMin= -3207.83253488228     IErMin= 7 ErrMin= 1.14D-04
 ErrMax= 1.14D-04  0.00D+00 EMaxC= 1.00D-01 BMatC= 1.05D-05 BMatP= 7.43D-05
 IDIUse=3 WtCom= 9.99D-01 WtEn= 1.14D-03
 Coeff-Com: -0.569D-04-0.163D-02-0.320D-02 0.170D-02 0.615D-01 0.306D+00
 Coeff-Com:  0.636D+00
 Coeff-En:   0.000D+00 0.000D+00 0.000D+00 0.000D+00 0.000D+00 0.277D-01
 Coeff-En:   0.972D+00
 Coeff:     -0.568D-04-0.163D-02-0.320D-02 0.170D-02 0.615D-01 0.305D+00
 Coeff:      0.637D+00
 Gap=     0.215 Goal=   None    Shift=    0.000
 RMSDP=5.02D-06 MaxDP=4.99D-04 DE=-6.83D-05 OVMax= 7.93D-04

 Cycle   8  Pass 1  IDiag  1:
 RMSU=  4.11D-06    CP:  9.53D-01  1.13D+00  7.15D-01  7.22D-01  7.64D-01
                    CP:  8.29D-01  8.56D-01
 E= -3207.83254568603     Delta-E=       -0.000010803755 Rises=F Damp=F
 DIIS: error= 2.16D-05 at cycle   8 NSaved=   8.
 NSaved= 8 IEnMin= 8 EnMin= -3207.83254568603     IErMin= 8 ErrMin= 2.16D-05
 ErrMax= 2.16D-05  0.00D+00 EMaxC= 1.00D-01 BMatC= 7.88D-07 BMatP= 1.05D-05
 IDIUse=1 WtCom= 1.00D+00 WtEn= 0.00D+00
 Coeff-Com:  0.135D-03-0.454D-03-0.461D-02-0.112D-01-0.133D-01 0.465D-01
 Coeff-Com:  0.244D+00 0.739D+00
 Coeff:      0.135D-03-0.454D-03-0.461D-02-0.112D-01-0.133D-01 0.465D-01
 Coeff:      0.244D+00 0.739D+00
 Gap=     0.215 Goal=   None    Shift=    0.000
 RMSDP=1.98D-06 MaxDP=1.21D-04 DE=-1.08D-05 OVMax= 2.19D-04

 Cycle   9  Pass 1  IDiag  1:
 RMSU=  1.46D-06    CP:  9.53D-01  1.13D+00  7.14D-01  7.23D-01  7.70D-01
                    CP:  8.59D-01  9.09D-01  8.95D-01
 E= -3207.83254661958     Delta-E=       -0.000000933552 Rises=F Damp=F
 DIIS: error= 1.07D-05 at cycle   9 NSaved=   9.
 NSaved= 9 IEnMin= 9 EnMin= -3207.83254661958     IErMin= 9 ErrMin= 1.07D-05
 ErrMax= 1.07D-05  0.00D+00 EMaxC= 1.00D-01 BMatC= 1.50D-07 BMatP= 7.88D-07
 IDIUse=1 WtCom= 1.00D+00 WtEn= 0.00D+00
 Coeff-Com:  0.497D-04 0.257D-04-0.190D-02-0.566D-02-0.136D-01-0.121D-01
 Coeff-Com:  0.439D-01 0.355D+00 0.634D+00
 Coeff:      0.497D-04 0.257D-04-0.190D-02-0.566D-02-0.136D-01-0.121D-01
 Coeff:      0.439D-01 0.355D+00 0.634D+00
 Gap=     0.215 Goal=   None    Shift=    0.000
 RMSDP=7.99D-07 MaxDP=5.10D-05 DE=-9.34D-07 OVMax= 1.37D-04

 Cycle  10  Pass 1  IDiag  1:
 RMSU=  6.34D-07    CP:  9.53D-01  1.13D+00  7.14D-01  7.23D-01  7.72D-01
                    CP:  8.63D-01  9.30D-01  9.56D-01  8.27D-01
 E= -3207.83254679741     Delta-E=       -0.000000177832 Rises=F Damp=F
 DIIS: error= 4.42D-06 at cycle  10 NSaved=  10.
 NSaved=10 IEnMin=10 EnMin= -3207.83254679741     IErMin=10 ErrMin= 4.42D-06
 ErrMax= 4.42D-06  0.00D+00 EMaxC= 1.00D-01 BMatC= 2.25D-08 BMatP= 1.50D-07
 IDIUse=1 WtCom= 1.00D+00 WtEn= 0.00D+00
 Coeff-Com:  0.692D-05 0.779D-04-0.435D-03-0.161D-02-0.567D-02-0.119D-01
 Coeff-Com: -0.770D-02 0.843D-01 0.317D+00 0.626D+00
 Coeff:      0.692D-05 0.779D-04-0.435D-03-0.161D-02-0.567D-02-0.119D-01
 Coeff:     -0.770D-02 0.843D-01 0.317D+00 0.626D+00
 Gap=     0.215 Goal=   None    Shift=    0.000
 RMSDP=3.38D-07 MaxDP=2.23D-05 DE=-1.78D-07 OVMax= 4.84D-05

 Cycle  11  Pass 1  IDiag  1:
 RMSU=  2.17D-07    CP:  9.53D-01  1.13D+00  7.14D-01  7.23D-01  7.71D-01
                    CP:  8.65D-01  9.35D-01  9.81D-01  9.54D-01  8.63D-01
 E= -3207.83254682642     Delta-E=       -0.000000029003 Rises=F Damp=F
 DIIS: error= 1.28D-06 at cycle  11 NSaved=  11.
 NSaved=11 IEnMin=11 EnMin= -3207.83254682642     IErMin=11 ErrMin= 1.28D-06
 ErrMax= 1.28D-06  0.00D+00 EMaxC= 1.00D-01 BMatC= 2.70D-09 BMatP= 2.25D-08
 IDIUse=1 WtCom= 1.00D+00 WtEn= 0.00D+00
 Coeff-Com: -0.585D-05 0.213D-04 0.197D-03 0.503D-03 0.314D-03-0.234D-02
 Coeff-Com: -0.119D-01-0.389D-01 0.751D-04 0.255D+00 0.797D+00
 Coeff:     -0.585D-05 0.213D-04 0.197D-03 0.503D-03 0.314D-03-0.234D-02
 Coeff:     -0.119D-01-0.389D-01 0.751D-04 0.255D+00 0.797D+00
 Gap=     0.215 Goal=   None    Shift=    0.000
 RMSDP=1.47D-07 MaxDP=6.01D-06 DE=-2.90D-08 OVMax= 3.67D-05

 Cycle  12  Pass 1  IDiag  1:
 RMSU=  8.91D-08    CP:  9.53D-01  1.13D+00  7.14D-01  7.23D-01  7.72D-01
                    CP:  8.66D-01  9.37D-01  9.88D-01  9.84D-01  1.01D+00
                    CP:  8.85D-01
 E= -3207.83254683204     Delta-E=       -0.000000005625 Rises=F Damp=F
 DIIS: error= 4.25D-07 at cycle  12 NSaved=  12.
 NSaved=12 IEnMin=12 EnMin= -3207.83254683204     IErMin=12 ErrMin= 4.25D-07
 ErrMax= 4.25D-07  0.00D+00 EMaxC= 1.00D-01 BMatC= 5.01D-10 BMatP= 2.70D-09
 IDIUse=1 WtCom= 1.00D+00 WtEn= 0.00D+00
 Coeff-Com: -0.256D-05-0.230D-05 0.139D-03 0.428D-03 0.868D-03 0.696D-03
 Coeff-Com: -0.375D-02-0.267D-01-0.408D-01 0.194D-01 0.368D+00 0.682D+00
 Coeff:     -0.256D-05-0.230D-05 0.139D-03 0.428D-03 0.868D-03 0.696D-03
 Coeff:     -0.375D-02-0.267D-01-0.408D-01 0.194D-01 0.368D+00 0.682D+00
 Gap=     0.215 Goal=   None    Shift=    0.000
 RMSDP=5.68D-08 MaxDP=3.04D-06 DE=-5.63D-09 OVMax= 9.54D-06

 Cycle  13  Pass 1  IDiag  1:
 RMSU=  3.42D-08    CP:  9.53D-01  1.13D+00  7.14D-01  7.23D-01  7.72D-01
                    CP:  8.66D-01  9.37D-01  9.89D-01  1.00D+00  1.04D+00
                    CP:  1.02D+00  9.34D-01
 E= -3207.83254683278     Delta-E=       -0.000000000740 Rises=F Damp=F
 DIIS: error= 1.48D-07 at cycle  13 NSaved=  13.
 NSaved=13 IEnMin=13 EnMin= -3207.83254683278     IErMin=13 ErrMin= 1.48D-07
 ErrMax= 1.48D-07  0.00D+00 EMaxC= 1.00D-01 BMatC= 3.29D-11 BMatP= 5.01D-10
 IDIUse=1 WtCom= 1.00D+00 WtEn= 0.00D+00
 Coeff-Com:  0.527D-06-0.423D-05 0.186D-04 0.646D-04 0.208D-03 0.452D-03
 Coeff-Com:  0.185D-03-0.344D-02-0.120D-01-0.286D-01 0.162D-01 0.173D+00
 Coeff-Com:  0.854D+00
 Coeff:      0.527D-06-0.423D-05 0.186D-04 0.646D-04 0.208D-03 0.452D-03
 Coeff:      0.185D-03-0.344D-02-0.120D-01-0.286D-01 0.162D-01 0.173D+00
 Coeff:      0.854D+00
 Gap=     0.215 Goal=   None    Shift=    0.000
 RMSDP=2.13D-08 MaxDP=1.04D-06 DE=-7.40D-10 OVMax= 5.04D-06

 Cycle  14  Pass 1  IDiag  1:
 RMSU=  1.14D-08    CP:  9.53D-01  1.13D+00  7.14D-01  7.23D-01  7.72D-01
                    CP:  8.66D-01  9.37D-01  9.90D-01  1.00D+00  1.05D+00
                    CP:  1.07D+00  1.05D+00  1.06D+00
 E= -3207.83254683282     Delta-E=       -0.000000000043 Rises=F Damp=F
[...]
 9,0.00000792,-0.00000646,0.00000135,0.00000498,-0.00000413,0.00000576,
 -0.00000156,0.00000388,-0.00000294,-0.00000314,0.00000329,-0.00000051,
 -0.00000581,-0.00000181,-0.00000102,-0.00000412,-0.00000873,-0.0000120
 7,0.00000158,0.00000487,0.00000308,-0.00000285,0.00000181,0.00000043,-
 0.00000085,-0.00000148,-0.00000016,-0.00000060,-0.00000184,0.00000036,
 0.00000050,-0.00000255,0.00000028,-0.00000636,0.00001633,0.00000077,-0
 .00000111,-0.00000129,-0.00001963,0.00005203,0.00004764,-0.00003990,0.
 00000649,0.00005379,0.00002997,-0.00001630,-0.00005312,-0.00009277,-0.
 00017039,-0.00006998,-0.00004173,-0.00006910,-0.00000427,-0.00003355,0
 .00002524,0.00004496,0.00016083,0.00012148,0.00005966,0.00005225,0.000
 04231,0.00002306,0.00004409,0.00002390,-0.00000364,0.00000065,0.000002
 62,-0.00000194,-0.00010544,0.00003348,-0.00024118,-0.00002617,-0.00002
 965,0.00000175,-0.00001029,0.00002536,-0.00000508,-0.00000305,0.000001
 29,-0.00000168,-0.00000116,0.00001027,0.00000076,-0.00000319,0.0000099
 4,-0.00014111,-0.00002691,-0.00002243,0.00006297,0.00001679,-0.0000119
 2,0.00003565,-0.00018486,-0.00003818,-0.00015919,0.00003457,0.00000728
 ,0.00003568,0.00010297,0.00004221,0.00004518,0.00006287,-0.00000660,0.
 00010114,-0.00000014,0.00000272,-0.00000022,0.00000348,-0.00000097,0.0
 0000181,0.00003897,0.00007779,-0.00001442,0.00042161,-0.00048644,0.000
 29611,-0.00029224,-0.00047304,-0.00027664,0.00462028,-0.01827821,0.010
 56570,-0.00056827,0.00028830,-0.00002781,0.00128211,0.00068513,0.00050
 828,-0.00015775,-0.00056740,-0.00020463,0.00000410,0.00004921,-0.00003
 164,0.00020089,0.00032867,-0.00125109,0.00001759,-0.00037569,0.0003275
 7,0.00001988,-0.00005120,0.00006808,0.00000533,-0.00004718,-0.00012317
 ,-0.00000513,0.00000177,-0.00000195,0.00000468,0.00000028,0.00000133,0
 .00000051,-0.00000115,0.00000248,-0.00000209,0.00000094,0.00000042,-0.
 00000046,0.00000026,-0.00000209,0.00000051,-0.00000163,0.00000143,0.00
 000208,0.00000069,0.00000039,0.00000103,-0.00000068,-0.00000058,-0.000
 00002,-0.00000024,-0.00000068,0.00000014,-0.00000009,-0.00000065,-0.00
 000722,-0.00000069,-0.00001611,0.00000156,-0.00000028,0.00000283,0.000
 00021,0.00000109,0.00000437,0.00000468,-0.00000017,0.00000830,-0.00664
 260,0.04680512,-0.08801429,0.01434311,0.03049752,-0.00046124,0.0167274
 0,-0.11390148,0.12076705,-0.00000484,-0.00000239,0.00000255,-0.0000014
 5,-0.00000552,0.00000746,-0.00004211,-0.00001065,0.00000063,0.00002237
 ,-0.00000059,0.00000180,0.00000323,-0.00000213,0.00000205,0.00000254,-
 0.00000484,0.00000257,0.00000094,-0.00000393,0.00000105,-0.00001105,0.
 00000847,-0.00000876,0.00002759,0.00002317,-0.00003151,-0.00002597,0.0
 0000941,-0.00000468,-0.00000096,-0.00000251,0.00000084,-0.00000121,-0.
 00000279,0.00000069,0.00002021,-0.00001929,0.00001103,-0.00000426,-0.0
 0002926,0.00001655,-0.00000042,-0.00000131,0.00000008,-0.00003936,-0.0
 0002349,0.00000613,-0.00001548,-0.00009338,-0.00010796,-0.00001883,0.0
 0002581,-0.00000468,0.00019352,0.00036629,0.00021677,0.00002307,0.0000
 3205,0.00008138,0.00002797,-0.00002336,-0.00002284,0.00007547,-0.00004
 058,-0.00001918,-0.00001829,-0.00007431,-0.00001248,-0.00002791,-0.000
 02366,0.00000103,-0.00000726,-0.00000405,-0.00000282,-0.00022021,0.000
 15294,-0.00015630,0.00002320,0.00001016,0.00000143,-0.00001338,0.00002
 857,-0.00000787,-0.00000314,-0.00000263,-0.00000562,-0.00000235,-0.000
 00341,-0.00001158,0.00020626,0.00013351,-0.00001413,-0.00009188,-0.000
 05013,0.00001752,-0.00007761,-0.00001870,-0.00000167,0.00034152,0.0002
 8116,-0.00013187,-0.00009010,-0.00012432,0.00010987,-0.00029115,-0.000
 13260,0.00010377,-0.00012748,-0.00005772,-0.00002403,-0.00000482,-0.00
 000239,0.00000229,-0.00000503,-0.00000224,0.00000086,-0.00019607,0.000
 59503,0.00125703,-0.00124074,-0.00102086,0.00111477,-0.00077540,-0.001
 13196,-0.00092410,0.01001485,0.00214284,0.00236402,0.00077797,-0.00061
 154,-0.00042307,-0.00043528,-0.00079950,0.00047879,0.00052245,0.000418
 74,0.00008140,0.00004027,-0.00006217,-0.00010673,-0.00020987,0.0005686
 9,0.00024309,0.00014232,0.00040424,0.00016415,0.00001963,0.00004394,-0
 .00003903,-0.00005438,0.00005081,-0.00003310,0.00000731,-0.00000178,0.
 00000131,-0.00000069,0.00000263,-0.00000111,-0.00000109,-0.00000100,0.
 00000105,-0.00000026,-0.00000066,0.00000010,-0.00000011,-0.00000018,0.
 00000019,-0.00000266,0.00000164,-0.00000067,-0.00000202,-0.00000243,0.
 00000126,0.00000169,0.00000019,-0.00000001,-0.00000026,-0.00000015,-0.
 00000007,-0.00000042,0.00000030,-0.00000027,0.00001195,0.00001848,-0.0
 0001395,-0.00000779,-0.00000755,0.00000468,-0.00000250,-0.00000436,0.0
 0000294,-0.00000143,-0.00000462,0.00000472,-0.11679037,-0.00908771,-0.
 08231141,-0.06689456,-0.02266617,-0.04821019,-0.00384799,0.01970234,-0
 .02994232,0.17906659,-0.00000330,-0.00000584,0.00000360,0.00000504,0.0
 0001140,-0.00000526,-0.00001421,-0.00001303,0.00000378,0.00000569,-0.0
 0000673,0.00000289,-0.00000621,0.00000260,-0.00000093,0.00000329,0.000
 00315,-0.00000078,0.00000153,0.00000308,-0.00000227,0.00000211,0.00000
 184,0.00000082,0.00001781,0.00001355,-0.00000706,-0.00000955,0.0000069
 2,-0.00000282,-0.00000079,-0.00000097,-0.00000014,0.00000030,-0.000001
 25,-0.00000001,0.00000126,-0.00000570,0.00000583,-0.00000262,0.0000025
 5,-0.00000208,-0.00000100,-0.00000065,-0.00000087,-0.00004438,0.000059
 59,0.00009370,-0.00007837,-0.00004321,-0.00001836,0.00004089,-0.000013
 18,-0.00006447,-0.00001855,0.00001684,0.00004978,-0.00005753,-0.000059
 27,0.00002713,-0.00003127,0.00002707,0.00004466,0.00023935,0.00022209,
 -0.00001015,0.00003944,0.00003418,0.00000214,0.00004351,0.00002207,-0.
 00000991,-0.00000094,-0.00000316,0.00000094,-0.00010848,-0.00024738,-0
 .00000541,-0.00002834,-0.00002579,-0.00000981,-0.00000135,0.00002585,0
 .00002376,-0.00000350,-0.00000474,-0.00000087,0.00000223,0.00000310,0.
 00000279,0.00006239,-0.00005065,-0.00001524,-0.00003068,0.00001662,0.0
 0000215,-0.00002804,0.00002014,0.00000016,0.00009827,-0.00007927,-0.00
 004847,-0.00002997,0.00000966,0.00003154,-0.00010062,0.00004480,0.0000
 3915,-0.00003548,0.00004368,0.00000003,-0.00000097,-0.00000301,0.00000
 245,-0.00000515,0.00000131,-0.00000027,-0.00011217,0.00049357,0.000858
 00,-0.00094202,-0.00036197,-0.00018050,-0.00111171,-0.00165973,-0.0007
 2100,-0.00879665,0.00393746,-0.02538076,0.00031251,-0.00076193,0.00043
 299,0.00131840,0.00111065,-0.00035229,0.00010007,-0.00031615,-0.000436
 98,0.00009662,-0.00005575,-0.00004475,0.00118830,-0.00080521,0.0005342
 6,-0.00036590,0.00052513,-0.00034654,-0.00004605,0.00009690,-0.0001201
 8,0.00006589,-0.00015753,-0.00009783,0.00000667,-0.00000279,0.00000103
 ,-0.00000462,0.00000157,0.00000037,-0.00000064,0.00000204,0.00000015,0
 .00000196,-0.00000020,0.00000103,0.00000060,-0.00000174,-0.00000086,-0
 .00000124,0.00000220,-0.00000080,-0.00000270,-0.00000053,0.00000089,-0
 .00000070,-0.00000004,-0.00000092,-0.00000015,-0.00000033,-0.00000041,
 -0.00000023,-0.00000039,-0.00000038,0.00000812,-0.00000644,-0.00000712
 ,-0.00000252,0.00000066,0.00000137,-0.00000381,0.00000411,0.00000292,-
 0.00000108,0.00000157,0.00000228,-0.00857389,-0.07818898,-0.02521073,-
 0.02311238,0.00509640,-0.01436145,0.02892207,-0.01195839,0.05540312,0.
 01113452,0.08299927,0.00000484,0.00000779,0.00000297,-0.00001106,-0.00
 000889,0.00001364,0.00000066,0.00000881,-0.00000883,0.00000256,0.00000
 725,-0.00000724,0.00000874,-0.00000221,0.00000655,-0.00000396,-0.00000
 370,0.00000517,0.00000011,-0.00000768,-0.00000331,-0.00000037,-0.00000
 499,-0.00001165,-0.00002108,0.00000894,0.00001091,0.00000264,-0.000004
 01,0.00000321,0.00000031,-0.00000167,-0.00000264,-0.00000023,-0.000001
 61,-0.00000284,0.00000620,-0.00000321,-0.00000335,-0.00000104,-0.00001
 147,0.00003780,0.00000083,-0.00000220,-0.00000250,-0.00003526,0.000158
 55,0.00014487,-0.00007301,0.00002920,0.00009590,0.00007468,-0.00004079
 ,-0.00015233,-0.00019797,-0.00036670,-0.00005563,-0.00014115,-0.000142
 43,0.00005026,-0.00007894,0.00006635,0.00011586,0.00063149,0.00028936,
 0.00011839,0.00011984,0.00010172,0.00006885,0.00011604,0.00006364,-0.0
 0001171,0.00000123,0.00000539,-0.00000390,-0.00021375,0.00056780,-0.00
 038309,-0.00005982,-0.00006859,0.00000656,-0.00003504,0.00006173,-0.00
 000901,-0.00000793,0.00000196,-0.00000462,-0.00000371,0.00002115,0.000
 00007,0.00004776,0.00002328,-0.00033921,-0.00008936,-0.00005955,0.0001
 5326,0.00001706,-0.00002342,0.00008382,-0.00041961,-0.00016013,-0.0003
 4196,0.00006863,0.00003673,0.00006118,0.00027650,0.00012129,0.00009086
 ,0.00012951,-0.00000961,0.00023737,-0.00000119,0.00000469,0.00000031,0
 .00000458,-0.00000220,0.00000376,0.00033718,0.00003835,-0.00048213,0.0
 0101049,0.00106477,-0.00097437,-0.00237972,-0.00178768,0.00086064,-0.0
 2260802,-0.01211933,-0.03958701,0.00045518,-0.00101338,0.00037394,0.00
 500753,0.00142985,-0.00363734,0.00003579,-0.00046073,-0.00061744,0.000
 12872,-0.00001737,-0.00018122,0.00081528,-0.00223575,0.00035339,-0.000
 41579,0.00072129,-0.00038698,-0.00001076,0.00011971,-0.00018593,0.0003
 4537,-0.00047131,-0.00033651,-0.00000653,0.00000217,-0.00000305,0.0000
 0798,0.00000177,0.00000248,0.00000052,-0.00000199,0.00000512,-0.000003
 69,0.00000152,0.00000123,-0.00000096,0.00000009,-0.00000455,0.,-0.0000
 0202,0.00000230,0.00000289,0.00000045,0.00000138,0.00000247,-0.0000012
 8,-0.00000148,-0.00000005,-0.00000067,-0.00000138,0.00000003,-0.000000
 20,-0.00000146,-0.00000735,0.00000130,-0.00003542,-0.00000024,-0.00000
 228,0.00000683,-0.00000144,0.00000237,0.00000976,0.00000792,-0.0000009
 3,0.00001694,-0.07805493,-0.02541549,-0.24920457,-0.03102830,-0.008948
 72,0.00552983,-0.03008694,0.03850009,-0.04195889,0.15629719,0.00989625
 ,0.33051219,-0.00009053,-0.00011316,0.00001264,-0.00019452,0.00005354,
 0.00003838,0.00005172,-0.00027016,0.00026203,0.00013117,0.00001489,-0.
 00002513,0.00012459,-0.00003083,0.00001620,0.00002300,-0.00009409,0.00
 005917,0.00001268,-0.00001652,0.00000384,0.00001378,0.00000329,0.00002
 143,-0.00088056,0.00026710,-0.00062191,-0.00002749,0.00001119,0.000276
 95,-0.00001192,-0.00001630,0.00000869,0.00000526,-0.00000129,0.0000069
 6,0.00076375,-0.00031815,0.00002875,-0.00030877,-0.00311173,-0.0027373
 0,-0.00000972,-0.00006256,0.00001386,-0.00060363,-0.00050667,0.0002001
 4,-0.00430018,-0.00067175,-0.00164811,0.00037223,-0.00020466,-0.000045
 94,0.00008037,0.00112656,0.00009812,-0.00014613,-0.00028343,-0.0001751
 2,-0.00003645,0.00009728,0.00005243,-0.00027446,0.00006657,0.00049475,
 -0.00000857,0.00015181,0.00008711,0.00009149,-0.00001936,-0.00005462,-
 0.00000062,0.00003631,0.00002268,-0.00002287,0.00002114,0.00009527,-0.
 00012003,-0.00007748,0.00001326,-0.00000283,-0.00000009,-0.00000217,0.
 00000215,0.00000227,0.00000224,0.00000187,0.00000264,-0.00000533,0.007
 46794,-0.00719613,0.00757281,-0.00096548,-0.00084870,0.00004038,-0.001
 62190,0.00321474,0.00070195,-0.00140317,0.02490323,-0.00341908,0.00022
 771,0.00019293,-0.00196717,0.00040326,-0.00228412,0.00255608,-0.024610
 67,0.00571656,-0.03087661,-0.00000680,-0.00006108,-0.00008412,-0.00007
 359,0.00004324,0.00001262,-0.00004398,0.00008000,-0.00001174,0.0000232
 5,-0.00009115,-0.00002714,-0.00002626,-0.00004687,-0.00003020,0.000002
 09,0.00000318,0.00001750,-0.00000399,0.00001446,0.00002540,0.00000194,
 0.00000954,0.00000505,0.00000365,-0.00001838,-0.00000622,-0.00000121,-
 0.00001633,-0.00003244,0.00001309,0.00000666,-0.00000112,0.00000011,0.
 00000265,-0.00000098,0.00000042,0.00000480,0.00000068,0.00000213,0.000
 00251,-0.00000118,0.00005204,-0.00002168,0.00000472,-0.00005503,0.0000
 0329,0.00001917,-0.00000323,0.00001474,0.00000348,0.00001665,0.0000104
 9,0.00000438,-0.00000008,-0.00000969,-0.00002566,-0.00001223,0.0000235
 8,-0.00001134,-0.00002873,-0.00000719,0.00000737,-0.00000892,0.0000002
 3,-0.00000806,-0.00000322,-0.00000104,-0.00000291,0.00000092,-0.000001
 17,-0.00000286,0.00002659,-0.00003564,-0.00007222,-0.00000493,0.000006
 75,0.00001002,-0.00002049,0.00002042,0.00002179,0.00000540,0.00001132,
 0.00003468,-0.00009525,0.00001722,-0.00003984,0.00003586,0.00000371,-0
 .00000203,0.00002322,-0.00001964,0.00000915,0.00003752,0.00000092,0.00
 003046,0.02601061,0.00001880,0.00004634,-0.00002599,0.00004828,0.00001
 913,-0.00000940,0.00007123,0.00012118,0.00015774,-0.00014014,0.0000808
 1,-0.00006032,0.00000558,-0.00006329,0.00001525,-0.00005734,0.00003113
 ,-0.00001971,-0.00000521,0.00000779,-0.00000542,0.00001944,-0.00001683
 ,0.00000237,-0.00028225,-0.00002398,-0.00007900,0.00010788,-0.00012009
 ,0.00010472,0.00000553,0.00001013,-0.00000555,-0.00000131,0.00000794,-
 0.00000414,0.00005478,0.00004127,-0.00031329,-0.00036445,0.00000921,-0
 .00061697,0.00000688,0.00002369,0.00001895,-0.00005573,-0.00030336,-0.
 00026142,-0.00089365,0.00045733,-0.00040269,-0.00003925,0.00003600,0.0
 0003410,0.00020202,0.00050909,0.00024520,0.00005067,0.00005288,0.00000
 418,-0.00008287,-0.00005195,0.00003381,-0.00009417,-0.00014094,0.00006
 915,0.00004465,0.00005127,0.00001832,-0.00004953,0.00000995,0.00002154
 ,0.00000431,-0.00001753,-0.00000729,-0.00004170,0.00003204,0.00002829,
 -0.00002933,0.00003332,0.00005080,-0.00002010,0.00000138,0.00000892,-0
 .00000255,0.00001320,0.00000960,-0.00000357,0.00000607,0.00000704,-0.0
 0349483,-0.01519198,-0.00194551,0.00037476,0.00181336,0.00188934,0.001
 69384,0.00224840,0.00155176,0.00393015,-0.00396281,0.00632150,-0.00027
 560,0.00181174,-0.00273638,-0.00327774,-0.00115431,-0.00227312,0.02233
 235,-0.42066269,0.05309835,-0.00001721,-0.00000851,0.00001539,0.000039
 12,0.00004739,-0.00002694,0.00000475,0.00001185,-0.00002733,-0.0000629
 0,-0.00005365,0.00001029,0.00003819,0.00009384,0.00003995,0.00000791,-
 0.00002836,-0.00000764,-0.00002818,-0.00006537,-0.00000100,0.00000316,
 -0.00002657,-0.00001862,0.00002146,0.00000633,0.00001013,-0.00000976,0
 .00004082,-0.00001564,-0.00003195,-0.00002493,0.00000474,-0.00000481,-
 0.00000179,-0.00000463,-0.00000893,-0.00000596,-0.00001376,-0.00000283
 ,0.00000192,-0.00000315,-0.00010084,0.00003770,-0.00001954,0.00005610,
 -0.00002393,0.00000492,0.00001424,-0.00002050,0.00001082,-0.00002296,0
 .00000465,-0.00000582,-0.00001829,0.00002961,-0.00000418,0.00001802,-0
 .00001956,0.00000839,0.00003406,0.00000899,-0.00000660,0.00001114,-0.0
 0000241,0.00000615,0.00000424,-0.00000027,0.00000127,0.00000260,0.0000
 0174,0.00000098,-0.00008477,-0.00002229,0.00002784,0.00002998,0.000014
 00,-0.00001020,0.00002656,0.00000181,-0.00000880,0.00002320,0.00000563
 ,-0.00000551,0.00001140,0.00009559,-0.00007585,-0.00000899,-0.00001788
 ,0.00001257,-0.00000772,-0.00004774,0.00001737,0.00000890,-0.00002169,
 0.00003856,-0.01970472,0.43422464,0.00002456,0.00002659,-0.00002502,-0
 .00001393,-0.00007161,0.00003021,0.00003091,0.00009676,0.00022681,-0.0
 0012650,0.00010903,-0.00011600,0.00010211,-0.00010454,0.00002962,-0.00
 008255,-0.00003137,0.00001427,0.00000545,-0.00000611,0.00000374,0.0000
 1280,-0.00000500,-0.00000051,-0.00045566,0.00023818,0.00003894,-0.0001
 8287,-0.00017355,0.00029662,-0.00000406,-0.00000020,0.00000473,0.00000
 179,-0.00000133,0.00000227,0.00082446,-0.00070205,-0.00017833,-0.00271
 580,-0.00210511,-0.00178324,0.00001556,-0.00003950,0.00009639,-0.00002
 118,-0.00020270,-0.00046179,0.00010911,-0.00082929,0.00039179,-0.00001
 925,0.00013864,0.00007358,0.00000199,0.00027198,0.00018505,0.00006276,
 0.00002193,0.00000102,-0.00002250,-0.00005027,-0.00001187,-0.00005555,
 -0.00007360,-0.00012363,0.00002183,0.00000462,-0.00001057,-0.00002743,
 0.00001339,0.00000992,0.00000432,0.00000834,0.00001942,-0.00000182,0.0
 0000823,0.00002209,0.00001674,0.00001974,0.00000245,0.00000419,-0.0000
 0549,0.00000087,-0.00000013,0.00000047,0.00000291,0.00000281,-0.000001
 87,0.00000348,0.00079206,-0.02618881,0.00662402,0.00135519,0.00298880,
 -0.00300237,0.00016930,0.00234320,-0.00083396,0.00593540,0.01913159,0.
 00225120,-0.00368488,0.00282159,-0.00665601,0.00003307,-0.00290632,-0.
 00175929,-0.03117039,0.06010918,-0.04091459,0.00000457,0.00000054,-0.0
 0008979,-0.00000493,0.00002599,-0.00002321,0.00003636,-0.00001285,0.00
 002504,0.00000185,0.00001012,-0.00002841,0.00001656,0.00002333,0.00001
 506,0.00000341,0.00000144,-0.00001446,-0.00002531,-0.00001657,-0.00000
 460,0.00000671,-0.00000654,-0.00001004,0.00000637,0.00001246,0.0000010
 7,-0.00000667,-0.00000312,0.00000769,-0.00001049,-0.00000336,0.0000008
 1,0.00000104,-0.00000152,0.00000180,-0.00000227,-0.00000549,-0.0000005
 0,0.00000054,-0.00000123,0.00000116,0.00002016,-0.00000169,0.00000923,
 -0.00002771,-0.00000954,-0.00000470,0.00000341,0.00000506,-0.00001087,
 0.00001068,-0.00000476,-0.00000265,-0.00000445,-0.00000032,0.00001340,
 -0.00000609,0.00001200,-0.00000829,-0.00001112,-0.00000678,0.00000119,
 -0.00000411,0.00000264,0.00000268,-0.00000063,0.00000109,0.00000172,-0
 .00000042,0.00000091,0.00000186,0.00003557,0.00003932,0.00003762,-0.00
 001444,-0.00001141,-0.00000251,-0.00000037,-0.00001407,-0.00001208,-0.
 00001769,-0.00001028,-0.00002200,0.00006740,-0.00000538,0.00006905,-0.
 00002253,-0.00000424,-0.00000684,-0.00001222,0.00001300,-0.00001458,-0
 .00003104,-0.00000331,-0.00004408,0.02904593,-0.05487893,0.04565600\\0
 .00000018,-0.00000171,-0.00000146,0.00000096,0.00000042,0.00000049,0.0
 0000061,-0.00000054,-0.00000129,-0.00000148,-0.00000134,-0.00000072,0.
 00000048,-0.00000034,-0.00000243,0.00000205,-0.00000034,-0.00000270,0.
 00000106,-0.00000059,-0.00000220,-0.00000005,-0.00000091,-0.00000020,0
 .00000402,-0.00000302,-0.00000151,0.00000133,-0.00000334,0.00000096,0.
 00000112,-0.00000146,-0.00000222,0.00000122,-0.00000108,-0.00000255,0.
 00000119,0.00001184,-0.00000717,0.00000354,0.00000148,-0.00000026,0.00
 000143,-0.00000179,-0.00000139,-0.00000636,-0.00000253,-0.00000088,0.0
 0000475,0.00000471,-0.00000027,-0.00000118,0.00000167,-0.00000127,-0.0
 0000769,0.00000422,0.00000591,0.00000167,0.00000395,0.00000040,0.00000
 095,0.00000055,-0.00000435,0.00000193,-0.00000352,-0.00000393,-0.00000
 010,0.00000031,-0.00000159,0.00000029,0.00000160,-0.00000101,0.0000012
 8,0.00000135,-0.00000251,-0.00000098,0.00000089,0.00000046,0.00000089,
 0.00000312,-0.00000109,0.00000011,0.00000250,-0.00000041,0.00000062,0.
 00000203,-0.00000199,0.00000043,0.00000254,-0.00000143,-0.00000552,-0.
 00001020,-0.00000146,0.00000343,0.00000153,0.00000448,-0.00000322,0.00
 000081,0.00000239,-0.00001003,0.00000487,-0.00000673,0.00000106,-0.000
 00517,-0.00000065,0.00000524,0.00000472,0.00000230,0.00000978,-0.00000
 364,0.00000787,0.00000014,-0.00000730,0.00000434,-0.00000169,-0.000001
 97,-0.00000071,-0.00000120,-0.00000027,-0.00000350,0.00000319,-0.00000
 249,0.00000474,-0.00000853,0.00000483,0.00000410,0.00000043,-0.0000010
 9,0.00000134,0.00000034,-0.00000135,-0.00000041,-0.00000042,-0.0000013
 2,-0.00000006,0.00000062,0.00000062,0.00000316,-0.00000138,-0.00000140
 ,0.00000245,-0.00000219,0.00000048,0.00000353,-0.00000109,0.00000068,0
 .00000256,-0.00000095,-0.00000055,0.00000267,-0.00000139,0.00000010,0.
 00000294,0.00000443,0.00001001,-0.00000672,-0.00000011,-0.00000500,0.0
 0000445,-0.00000266,-0.00000638,0.00000018,-0.00000230,-0.00000100,0.0
 0000126,-0.00000054,0.00000034,0.00000031,0.00000157,-0.00000364,0.000
 00170,0.,0.00000013,-0.00000056,-0.00000017,-0.00000089,0.00000113,-0.
 00000004,-0.00000220,0.00000014,-0.00000006,-0.00000120,0.00000061,0.0
 0000133,0.00000127,0.00000324,0.00000065,-0.00000015,-0.00000182,-0.00
 000039,-0.00000495,-0.00000560,-0.00000146,-0.00000019,0.00000073,-0.0
 0000036,0.00000601,-0.00000145,0.00000036,0.00000185,0.00000149,-0.000
 00127,0.00000025,0.00000086,0.00000046,0.00000079,0.00000453,-0.000000
 30,0.00000243,-0.00000126\\\@
 The archive entry for this job was punched.


 MAN IS THE MEASURE OF ALL THINGS.
  -- PROTAGORAS (5TH CENTURY B.C.)
 Job cpu time:       1 days  0 hours 28 minutes 32.0 seconds.
 Elapsed time:       0 days  0 hours 57 minutes 26.6 seconds.
 File lengths (MBytes):  RWF=   6059 Int=      0 D2E=      0 Chk=     84 Scr=      1
 Normal termination of Gaussian 16 at Tue Jun 11 20:06:18 2024.
