 Entering Gaussian System, Link 0=/cm/shared/apps/spack/cpu/opt/spack/linux-centos8-zen/gcc-8.3.1/gaussian-16.C.01-po5bqktfeugvmjyga3v7eigbecnokxng/g16/g16
 Initial command:
 /cm/shared/apps/spack/cpu/opt/spack/linux-centos8-zen/gcc-8.3.1/gaussian-16.C.01-po5bqktfeugvmjyga3v7eigbecnokxng/g16/l1.exe "/scratch/bim12/job_39385190/Gau-3516813.inp" -scrdir="/scratch/bim12/job_39385190/"
 Entering Link 1 = /cm/shared/apps/spack/cpu/opt/spack/linux-centos8-zen/gcc-8.3.1/gaussian-16.C.01-po5bqktfeugvmjyga3v7eigbecnokxng/g16/l1.exe PID=   3516814.
  
 Copyright (c) 1988-2019, Gaussian, Inc.  All Rights Reserved.
  
 This is part of the Gaussian(R) 16 program.  It is based on
 the Gaussian(R) 09 system (copyright 2009, Gaussian, Inc.),
 the Gaussian(R) 03 system (copyright 2003, Gaussian, Inc.),
 the Gaussian(R) 98 system (copyright 1998, Gaussian, Inc.),
 the Gaussian(R) 94 system (copyright 1995, Gaussian, Inc.),
 the Gaussian 92(TM) system (copyright 1992, Gaussian, Inc.),
 the Gaussian 90(TM) system (copyright 1990, Gaussian, Inc.),
 the Gaussian 88(TM) system (copyright 1988, Gaussian, Inc.),
 the Gaussian 86(TM) system (copyright 1986, Carnegie Mellon
 University), and the Gaussian 82(TM) system (copyright 1983,
 Carnegie Mellon University). Gaussian is a federally registered
 trademark of Gaussian, Inc.
  
 This software contains proprietary and confidential information,
 including trade secrets, belonging to Gaussian, Inc.
  
 This software is provided under written license and may be
 used, copied, transmitted, or stored only in accord with that
 written license.
  
 The following legend is applicable only to US Government
 contracts under FAR:
  
                    RESTRICTED RIGHTS LEGEND
  
 Use, reproduction and disclosure by the US Government is
 subject to restrictions as set forth in subparagraphs (a)
 and (c) of the Commercial Computer Software - Restricted
 Rights clause in FAR 52.227-19.
  
 Gaussian, Inc.
 340 Quinnipiac St., Bldg. 40, Wallingford CT 06492
  
  
 ---------------------------------------------------------------
 Warning -- This program may not be used in any manner that
 competes with the business of Gaussian, Inc. or will provide
 assistance to any competitor of Gaussian, Inc.  The licensee
 of this program is prohibited from giving any competitor of
 Gaussian, Inc. access to this program.  By using this program,
 the user acknowledges that Gaussian, Inc. is engaged in the
 business of creating and licensing software in the field of
 computational chemistry and represents and warrants to the
 licensee that it is not a competitor of Gaussian, Inc. and that
 it will not use this program in any manner prohibited above.
 ---------------------------------------------------------------
  

 Cite this work as:
 Gaussian 16, Revision C.01,
 M. J. Frisch, G. W. Trucks, H. B. Schlegel, G. E. Scuseria, 
 M. A. Robb, J. R. Cheeseman, G. Scalmani, V. Barone, 
 G. A. Petersson, H. Nakatsuji, X. Li, M. Caricato, A. V. Marenich, 
 J. Bloino, B. G. Janesko, R. Gomperts, B. Mennucci, H. P. Hratchian, 
 J. V. Ortiz, A. F. Izmaylov, J. L. Sonnenberg, D. Williams-Young, 
 F. Ding, F. Lipparini, F. Egidi, J. Goings, B. Peng, A. Petrone, 
 T. Henderson, D. Ranasinghe, V. G. Zakrzewski, J. Gao, N. Rega, 
 G. Zheng, W. Liang, M. Hada, M. Ehara, K. Toyota, R. Fukuda, 
 J. Hasegawa, M. Ishida, T. Nakajima, Y. Honda, O. Kitao, H. Nakai, 
 T. Vreven, K. Throssell, J. A. Montgomery, Jr., J. E. Peralta, 
 F. Ogliaro, M. J. Bearpark, J. J. Heyd, E. N. Brothers, K. N. Kudin, 
 V. N. Staroverov, T. A. Keith, R. Kobayashi, J. Normand, 
 K. Raghavachari, A. P. Rendell, J. C. Burant, S. S. Iyengar, 
 J. Tomasi, M. Cossi, J. M. Millam, M. Klene, C. Adamo, R. Cammi, 
 J. W. Ochterski, R. L. Martin, K. Morokuma, O. Farkas, 
 J. B. Foresman, and D. J. Fox, Gaussian, Inc., Wallingford CT, 2019.
 
 ******************************************
 Gaussian 16:  ES64L-G16RevC.01  3-Jul-2019
                15-May-2025 
 ******************************************
 %nprocshared=32
 Will use up to   32 processors via shared memory.
 %mem=62GB
 ----------------------------------------------------------------------
 #p m062x genecp opt freq nosymm scrf=(smd,solvent=propylethanoate) emp
 iricaldispersion=gd3 scf=(xqc,maxcycles=128)
 ----------------------------------------------------------------------
 1/18=20,19=15,26=3,38=1/1,3;
 2/9=110,12=2,15=1,17=6,18=5,40=1/2;
 3/5=7,11=2,16=1,17=8,25=1,30=1,70=32201,71=1,72=169,74=-55,124=31/1,2,3;
 4//1;
 5/5=2,7=128,8=3,13=1,38=5,53=169/2,8;
 6/7=2,8=2,9=2,10=2,28=1/1;
 7/30=1/1,2,3,16;
 1/18=20,19=15,26=3/3(2);
 2/9=110,15=1/2;
 99//99;
 2/9=110,15=1/2;
 3/5=7,6=1,11=2,16=1,17=8,25=1,30=1,70=32205,71=1,72=169,74=-55,82=7,124=31/1,2,3;
 4/5=5,16=3,69=1/1;
 5/5=2,7=128,8=3,13=1,38=5,53=169/2,8;
 7/30=1/1,2,3,16;
 1/18=20,19=15,26=3/3(-5);
 2/9=110,15=1/2;
 6/7=2,8=2,9=2,10=2,19=2,28=1/1;
 99/9=1/99;
 Leave Link    1 at Thu May 15 10:10:24 2025, MaxMem=  8321499136 cpu:               1.1 elap:               0.1
 (Enter /cm/shared/apps/spack/cpu/opt/spack/linux-centos8-zen/gcc-8.3.1/gaussian-16.C.01-po5bqktfeugvmjyga3v7eigbecnokxng/g16/l101.exe)
 -------------------
 Title Card Required
 -------------------
 Symbolic Z-matrix:
 Charge =  0 Multiplicity = 1
 C                    -2.56512   6.27422  -1.54211 
 C                    -2.58013   5.08179  -0.85919 
 C                    -1.3637    4.47688  -0.4355 
 C                    -0.13417   5.11996  -0.75733 
 C                    -0.1508    6.35854  -1.45638 
 C                    -1.3413    6.92499  -1.83703 
 H                    -3.5056    6.72269  -1.86516 
 H                    -3.53137   4.59199  -0.65077 
 C                    -1.32923   3.23502   0.28022 
 C                     1.08965   4.51107  -0.39666 
 H                     0.80109   6.83967  -1.68817 
 H                    -1.35      7.87294  -2.37694 
 C                     1.13276   3.28854   0.24731 
 C                    -0.10843   2.6585    0.58768 
 H                     2.0276    5.01011  -0.64647 
 C                    -2.64007   2.59518   0.63535 
 C                    -3.07881   1.43015   0.03039 
 C                    -3.44847   3.22104   1.63918 
 C                    -4.35034   0.85046   0.34535 
 C                    -4.72203   2.66062   1.94398 
 C                    -3.01875   4.36969   2.3606 
 C                    -5.14829   1.48965   1.27676 
 C                    -5.54352   3.27736   2.92792 
 C                    -3.82969   4.93812   3.31342 
 H                    -2.03466   4.7963    2.16517 
 H                    -6.12778   1.06854   1.51057 
 C                    -5.10789   4.39437   3.59531 
 H                    -6.51916   2.83792   3.14278 
 H                    -3.48422   5.81529   3.86231 
 H                    -5.73911   4.86266   4.35195 
 S                    -0.13993   1.04602   1.31334 
 O                    -1.09229   1.0331    2.36875 
 O                     1.15679   0.52781   1.56218 
 S                    -1.93414   0.60911  -1.04733 
 O                    -1.42518   1.56039  -1.96731 
 O                    -2.44085  -0.63069  -1.51532 
 N                    -0.71114   0.17246   0.00489 
 C                     2.43128   2.75795   0.53692 
 C                     3.58662   2.43515   0.71692 
 C                    -4.88177  -0.33838  -0.25148 
 C                    -5.4558   -1.3192   -0.67578 
 C                    -6.11795  -2.48305  -1.1843 
 C                    -7.41133  -2.8381   -0.74819 
 C                    -5.47597  -3.29252  -2.13304 
 C                    -8.03798  -3.97323  -1.25137 
 C                    -6.10933  -4.42723  -2.63285 
 H                    -4.47592  -3.01614  -2.46887 
 C                    -7.38732  -4.76942  -2.19465 
 H                    -9.03773  -4.2362   -0.90553 
 H                    -5.59898  -5.048    -3.37065 
 H                    -7.88353  -5.6583   -2.58599 
 C                     4.94556   2.03654   0.93109 
 C                     5.2239    0.82713   1.58471 
 C                     6.0201    2.83833   0.4934 
 C                     6.54129   0.42921   1.79595 
 H                     4.39175   0.20812   1.92165 
 C                     7.33371   2.43466   0.70752 
 C                     7.59585   1.22908   1.3594 
 H                     6.74394  -0.51382   2.30571 
 H                     8.15483   3.06369   0.36352 
 H                     8.62787   0.91733   1.52439 
 C                     5.73395   4.14073  -0.20953 
 F                     6.85374   4.77179  -0.56567 
 F                     5.03854   4.98333   0.56291 
 F                     5.0145    3.96129  -1.32254 
 C                    -8.11317  -1.97569   0.26972 
 F                    -9.32351  -2.44701   0.57257 
 F                    -8.27886  -0.72193  -0.16645 
 F                    -7.42663  -1.8939    1.41494 
 I                    -0.61004  -1.83307   0.30246 
 
 ITRead=  0  0  0  0  0  0  0  0  0  0  0  0  0  0  0  0  0  0  0  0
 ITRead=  0  0  0  0  0  0  0  0  0  0  0  0  0  0  0  0  0  0  0  0
 ITRead=  0  0  0  0  0  0  0  0  0  0  0  0  0  0  0  0  0  0  0  0
 ITRead=  0  0  0  0  0  0  0  0  0  0
 MicOpt= -1 -1 -1 -1 -1 -1 -1 -1 -1 -1 -1 -1 -1 -1 -1 -1 -1 -1 -1 -1
 MicOpt= -1 -1 -1 -1 -1 -1 -1 -1 -1 -1 -1 -1 -1 -1 -1 -1 -1 -1 -1 -1
 MicOpt= -1 -1 -1 -1 -1 -1 -1 -1 -1 -1 -1 -1 -1 -1 -1 -1 -1 -1 -1 -1
 MicOpt= -1 -1 -1 -1 -1 -1 -1 -1 -1 -1
 NAtoms=     70 NQM=       70 NQMF=       0 NMMI=      0 NMMIF=      0
                NMic=       0 NMicF=      0.
                    Isotopes and Nuclear Properties:
 (Nuclear quadrupole moments (NQMom) in fm**2, nuclear magnetic moments (NMagM)
  in nuclear magnetons)

  Atom         1           2           3           4           5           6           7           8           9          10
 IAtWgt=          12          12          12          12          12          12           1           1          12          12
 AtmWgt=  12.0000000  12.0000000  12.0000000  12.0000000  12.0000000  12.0000000   1.0078250   1.0078250  12.0000000  12.0000000
 NucSpn=           0           0           0           0           0           0           1           1           0           0
 AtZEff=  -0.0000000  -0.0000000  -0.0000000  -0.0000000  -0.0000000  -0.0000000  -0.0000000  -0.0000000  -0.0000000  -0.0000000
 NQMom=    0.0000000   0.0000000   0.0000000   0.0000000   0.0000000   0.0000000   0.0000000   0.0000000   0.0000000   0.0000000
 NMagM=    0.0000000   0.0000000   0.0000000   0.0000000   0.0000000   0.0000000   2.7928460   2.7928460   0.0000000   0.0000000
 AtZNuc=   6.0000000   6.0000000   6.0000000   6.0000000   6.0000000   6.0000000   1.0000000   1.0000000   6.0000000   6.0000000

  Atom        11          12          13          14          15          16          17          18          19          20
 IAtWgt=           1           1          12          12           1          12          12          12          12          12
 AtmWgt=   1.0078250   1.0078250  12.0000000  12.0000000   1.0078250  12.0000000  12.0000000  12.0000000  12.0000000  12.0000000
 NucSpn=           1           1           0           0           1           0           0           0           0           0
 AtZEff=  -0.0000000  -0.0000000  -0.0000000  -0.0000000  -0.0000000  -0.0000000  -0.0000000  -0.0000000  -0.0000000  -0.0000000
 NQMom=    0.0000000   0.0000000   0.0000000   0.0000000   0.0000000   0.0000000   0.0000000   0.0000000   0.0000000   0.0000000
 NMagM=    2.7928460   2.7928460   0.0000000   0.0000000   2.7928460   0.0000000   0.0000000   0.0000000   0.0000000   0.0000000
 AtZNuc=   1.0000000   1.0000000   6.0000000   6.0000000   1.0000000   6.0000000   6.0000000   6.0000000   6.0000000   6.0000000

  Atom        21          22          23          24          25          26          27          28          29          30
 IAtWgt=          12          12          12          12           1           1          12           1           1           1
 AtmWgt=  12.0000000  12.0000000  12.0000000  12.0000000   1.0078250   1.0078250  12.0000000   1.0078250   1.0078250   1.0078250
 NucSpn=           0           0           0           0           1           1           0           1           1           1
 AtZEff=  -0.0000000  -0.0000000  -0.0000000  -0.0000000  -0.0000000  -0.0000000  -0.0000000  -0.0000000  -0.0000000  -0.0000000
 NQMom=    0.0000000   0.0000000   0.0000000   0.0000000   0.0000000   0.0000000   0.0000000   0.0000000   0.0000000   0.0000000
 NMagM=    0.0000000   0.0000000   0.0000000   0.0000000   2.7928460   2.7928460   0.0000000   2.7928460   2.7928460   2.7928460
 AtZNuc=   6.0000000   6.0000000   6.0000000   6.0000000   1.0000000   1.0000000   6.0000000   1.0000000   1.0000000   1.0000000

  Atom        31          32          33          34          35          36          37          38          39          40
 IAtWgt=          32          16          16          32          16          16          14          12          12          12
 AtmWgt=  31.9720718  15.9949146  15.9949146  31.9720718  15.9949146  15.9949146  14.0030740  12.0000000  12.0000000  12.0000000
 NucSpn=           0           0           0           0           0           0           2           0           0           0
 AtZEff=  -0.0000000  -0.0000000  -0.0000000  -0.0000000  -0.0000000  -0.0000000  -0.0000000  -0.0000000  -0.0000000  -0.0000000
 NQMom=    0.0000000   0.0000000   0.0000000   0.0000000   0.0000000   0.0000000   2.0440000   0.0000000   0.0000000   0.0000000
 NMagM=    0.0000000   0.0000000   0.0000000   0.0000000   0.0000000   0.0000000   0.4037610   0.0000000   0.0000000   0.0000000
 AtZNuc=  16.0000000   8.0000000   8.0000000  16.0000000   8.0000000   8.0000000   7.0000000   6.0000000   6.0000000   6.0000000

  Atom        41          42          43          44          45          46          47          48          49          50
 IAtWgt=          12          12          12          12          12          12           1          12           1           1
 AtmWgt=  12.0000000  12.0000000  12.0000000  12.0000000  12.0000000  12.0000000   1.0078250  12.0000000   1.0078250   1.0078250
 NucSpn=           0           0           0           0           0           0           1           0           1           1
 AtZEff=  -0.0000000  -0.0000000  -0.0000000  -0.0000000  -0.0000000  -0.0000000  -0.0000000  -0.0000000  -0.0000000  -0.0000000
 NQMom=    0.0000000   0.0000000   0.0000000   0.0000000   0.0000000   0.0000000   0.0000000   0.0000000   0.0000000   0.0000000
 NMagM=    0.0000000   0.0000000   0.0000000   0.0000000   0.0000000   0.0000000   2.7928460   0.0000000   2.7928460   2.7928460
 AtZNuc=   6.0000000   6.0000000   6.0000000   6.0000000   6.0000000   6.0000000   1.0000000   6.0000000   1.0000000   1.0000000

  Atom        51          52          53          54          55          56          57          58          59          60
 IAtWgt=           1          12          12          12          12           1          12          12           1           1
 AtmWgt=   1.0078250  12.0000000  12.0000000  12.0000000  12.0000000   1.0078250  12.0000000  12.0000000   1.0078250   1.0078250
 NucSpn=           1           0           0           0           0           1           0           0           1           1
 AtZEff=  -0.0000000  -0.0000000  -0.0000000  -0.0000000  -0.0000000  -0.0000000  -0.0000000  -0.0000000  -0.0000000  -0.0000000
 NQMom=    0.0000000   0.0000000   0.0000000   0.0000000   0.0000000   0.0000000   0.0000000   0.0000000   0.0000000   0.0000000
 NMagM=    2.7928460   0.0000000   0.0000000   0.0000000   0.0000000   2.7928460   0.0000000   0.0000000   2.7928460   2.7928460
 AtZNuc=   1.0000000   6.0000000   6.0000000   6.0000000   6.0000000   1.0000000   6.0000000   6.0000000   1.0000000   1.0000000

  Atom        61          62          63          64          65          66          67          68          69          70
 IAtWgt=           1          12          19          19          19          12          19          19          19         127
 AtmWgt=   1.0078250  12.0000000  18.9984033  18.9984033  18.9984033  12.0000000  18.9984033  18.9984033  18.9984033 126.9004000
 NucSpn=           1           0           1           1           1           0           1           1           1           5
 AtZEff=  -0.0000000  -0.0000000  -0.0000000  -0.0000000  -0.0000000  -0.0000000  -0.0000000  -0.0000000  -0.0000000  -0.0000000
 NQMom=    0.0000000   0.0000000   0.0000000   0.0000000   0.0000000   0.0000000   0.0000000   0.0000000   0.0000000 -71.0000000
 NMagM=    2.7928460   0.0000000   2.6288670   2.6288670   2.6288670   0.0000000   2.6288670   2.6288670   2.6288670   2.8132800
 AtZNuc=   1.0000000   6.0000000   9.0000000   9.0000000   9.0000000   6.0000000   9.0000000   9.0000000   9.0000000  53.0000000
 Leave Link  101 at Thu May 15 10:10:24 2025, MaxMem=  8321499136 cpu:               6.2 elap:               0.4
 (Enter /cm/shared/apps/spack/cpu/opt/spack/linux-centos8-zen/gcc-8.3.1/gaussian-16.C.01-po5bqktfeugvmjyga3v7eigbecnokxng/g16/l103.exe)

 GradGradGradGradGradGradGradGradGradGradGradGradGradGradGradGradGradGrad
 Berny optimization.
 Initialization pass.
                           ----------------------------
                           !    Initial Parameters    !
                           ! (Angstroms and Degrees)  !
 --------------------------                            --------------------------
 ! Name  Definition              Value          Derivative Info.                !
 --------------------------------------------------------------------------------
 ! R1    R(1,2)                  1.3742         estimate D2E/DX2                !
 ! R2    R(1,6)                  1.4171         estimate D2E/DX2                !
 ! R3    R(1,7)                  1.0909         estimate D2E/DX2                !
 ! R4    R(2,3)                  1.4231         estimate D2E/DX2                !
 ! R5    R(2,8)                  1.09           estimate D2E/DX2                !
 ! R6    R(3,4)                  1.4244         estimate D2E/DX2                !
 ! R7    R(3,9)                  1.4338         estimate D2E/DX2                !
 ! R8    R(4,5)                  1.4223         estimate D2E/DX2                !
 ! R9    R(4,10)                 1.4137         estimate D2E/DX2                !
 ! R10   R(5,6)                  1.3722         estimate D2E/DX2                !
 ! R11   R(5,11)                 1.0915         estimate D2E/DX2                !
 ! R12   R(6,12)                 1.091          estimate D2E/DX2                !
 ! R13   R(9,14)                 1.3847         estimate D2E/DX2                !
 ! R14   R(9,16)                 1.5013         estimate D2E/DX2                !
 ! R15   R(10,13)                1.3824         estimate D2E/DX2                !
 ! R16   R(10,15)                1.0914         estimate D2E/DX2                !
 ! R17   R(13,14)                1.4329         estimate D2E/DX2                !
 ! R18   R(13,38)                1.4323         estimate D2E/DX2                !
 ! R19   R(14,31)                1.7685         estimate D2E/DX2                !
 ! R20   R(16,17)                1.3841         estimate D2E/DX2                !
 ! R21   R(16,18)                1.4328         estimate D2E/DX2                !
 ! R22   R(17,19)                1.4325         estimate D2E/DX2                !
 ! R23   R(17,34)                1.7737         estimate D2E/DX2                !
 ! R24   R(18,20)                1.4244         estimate D2E/DX2                !
 ! R25   R(18,21)                1.4229         estimate D2E/DX2                !
 ! R26   R(19,22)                1.3831         estimate D2E/DX2                !
 ! R27   R(19,40)                1.4325         estimate D2E/DX2                !
 ! R28   R(20,22)                1.4135         estimate D2E/DX2                !
 ! R29   R(20,23)                1.4224         estimate D2E/DX2                !
 ! R30   R(21,24)                1.3743         estimate D2E/DX2                !
 ! R31   R(21,25)                1.0902         estimate D2E/DX2                !
 ! R32   R(22,26)                1.0915         estimate D2E/DX2                !
 ! R33   R(23,27)                1.3722         estimate D2E/DX2                !
 ! R34   R(23,28)                1.0914         estimate D2E/DX2                !
 ! R35   R(24,27)                1.4174         estimate D2E/DX2                !
 ! R36   R(24,29)                1.0909         estimate D2E/DX2                !
 ! R37   R(27,30)                1.091          estimate D2E/DX2                !
 ! R38   R(31,32)                1.4216         estimate D2E/DX2                !
 ! R39   R(31,33)                1.4184         estimate D2E/DX2                !
 ! R40   R(31,37)                1.6737         estimate D2E/DX2                !
 ! R41   R(34,35)                1.4179         estimate D2E/DX2                !
 ! R42   R(34,36)                1.4188         estimate D2E/DX2                !
 ! R43   R(34,37)                1.6714         estimate D2E/DX2                !
 ! R44   R(37,70)                2.03           estimate D2E/DX2                !
 ! R45   R(38,39)                1.213          estimate D2E/DX2                !
 ! R46   R(39,52)                1.4323         estimate D2E/DX2                !
 ! R47   R(40,41)                1.2131         estimate D2E/DX2                !
 ! R48   R(41,42)                1.4323         estimate D2E/DX2                !
 ! R49   R(42,43)                1.4104         estimate D2E/DX2                !
 ! R50   R(42,44)                1.4027         estimate D2E/DX2                !
 ! R51   R(43,45)                1.3908         estimate D2E/DX2                !
 ! R52   R(43,66)                1.5075         estimate D2E/DX2                !
 ! R53   R(44,46)                1.3923         estimate D2E/DX2                !
 ! R54   R(44,47)                1.0905         estimate D2E/DX2                !
 ! R55   R(45,48)                1.3954         estimate D2E/DX2                !
 ! R56   R(45,49)                1.0901         estimate D2E/DX2                !
 ! R57   R(46,48)                1.3937         estimate D2E/DX2                !
 ! R58   R(46,50)                1.0909         estimate D2E/DX2                !
 ! R59   R(48,51)                1.0906         estimate D2E/DX2                !
 ! R60   R(52,53)                1.4026         estimate D2E/DX2                !
 ! R61   R(52,54)                1.4103         estimate D2E/DX2                !
 ! R62   R(53,55)                1.3923         estimate D2E/DX2                !
 ! R63   R(53,56)                1.0905         estimate D2E/DX2                !
 ! R64   R(54,57)                1.3908         estimate D2E/DX2                !
 ! R65   R(54,62)                1.5074         estimate D2E/DX2                !
 ! R66   R(55,58)                1.3937         estimate D2E/DX2                !
 ! R67   R(55,59)                1.091          estimate D2E/DX2                !
 ! R68   R(57,58)                1.3954         estimate D2E/DX2                !
 ! R69   R(57,60)                1.0901         estimate D2E/DX2                !
 ! R70   R(58,61)                1.0906         estimate D2E/DX2                !
 ! R71   R(62,63)                1.3338         estimate D2E/DX2                !
 ! R72   R(62,64)                1.338          estimate D2E/DX2                !
 ! R73   R(62,65)                1.3374         estimate D2E/DX2                !
 ! R74   R(66,67)                1.3337         estimate D2E/DX2                !
 ! R75   R(66,68)                1.3378         estimate D2E/DX2                !
 ! R76   R(66,69)                1.3377         estimate D2E/DX2                !
 ! A1    A(2,1,6)              120.7521         estimate D2E/DX2                !
 ! A2    A(2,1,7)              119.635          estimate D2E/DX2                !
 ! A3    A(6,1,7)              119.6122         estimate D2E/DX2                !
 ! A4    A(1,2,3)              120.4947         estimate D2E/DX2                !
 ! A5    A(1,2,8)              119.6334         estimate D2E/DX2                !
 ! A6    A(3,2,8)              119.8687         estimate D2E/DX2                !
 ! A7    A(2,3,4)              118.5986         estimate D2E/DX2                !
 ! A8    A(2,3,9)              122.5038         estimate D2E/DX2                !
 ! A9    A(4,3,9)              118.8877         estimate D2E/DX2                !
 ! A10   A(3,4,5)              119.6112         estimate D2E/DX2                !
 ! A11   A(3,4,10)             119.6799         estimate D2E/DX2                !
 ! A12   A(5,4,10)             120.7021         estimate D2E/DX2                !
 ! A13   A(4,5,6)              120.3939         estimate D2E/DX2                !
 ! A14   A(4,5,11)             118.5573         estimate D2E/DX2                !
 ! A15   A(6,5,11)             121.0468         estimate D2E/DX2                !
 ! A16   A(1,6,5)              120.1278         estimate D2E/DX2                !
 ! A17   A(1,6,12)             119.6781         estimate D2E/DX2                !
 ! A18   A(5,6,12)             120.1912         estimate D2E/DX2                !
 ! A19   A(3,9,14)             119.5163         estimate D2E/DX2                !
 ! A20   A(3,9,16)             117.7908         estimate D2E/DX2                !
 ! A21   A(14,9,16)            122.6742         estimate D2E/DX2                !
 ! A22   A(4,10,13)            121.7845         estimate D2E/DX2                !
 ! A23   A(4,10,15)            119.2501         estimate D2E/DX2                !
 ! A24   A(13,10,15)           118.9581         estimate D2E/DX2                !
 ! A25   A(10,13,14)           118.1936         estimate D2E/DX2                !
 ! A26   A(10,13,38)           116.7469         estimate D2E/DX2                !
 ! A27   A(14,13,38)           125.0549         estimate D2E/DX2                !
 ! A28   A(9,14,13)            121.8622         estimate D2E/DX2                !
 ! A29   A(9,14,31)            117.0666         estimate D2E/DX2                !
 ! A30   A(13,14,31)           120.9156         estimate D2E/DX2                !
 ! A31   A(9,16,17)            122.1487         estimate D2E/DX2                !
 ! A32   A(9,16,18)            118.1779         estimate D2E/DX2                !
 ! A33   A(17,16,18)           119.6729         estimate D2E/DX2                !
 ! A34   A(16,17,19)           121.728          estimate D2E/DX2                !
 ! A35   A(16,17,34)           116.785          estimate D2E/DX2                !
 ! A36   A(19,17,34)           121.2738         estimate D2E/DX2                !
 ! A37   A(16,18,20)           118.8505         estimate D2E/DX2                !
 ! A38   A(16,18,21)           122.5108         estimate D2E/DX2                !
 ! A39   A(20,18,21)           118.6303         estimate D2E/DX2                !
 ! A40   A(17,19,22)           118.24           estimate D2E/DX2                !
 ! A41   A(17,19,40)           124.9979         estimate D2E/DX2                !
 ! A42   A(22,19,40)           116.7505         estimate D2E/DX2                !
 ! A43   A(18,20,22)           119.6399         estimate D2E/DX2                !
 ! A44   A(18,20,23)           119.5902         estimate D2E/DX2                !
 ! A45   A(22,20,23)           120.7658         estimate D2E/DX2                !
 ! A46   A(18,21,24)           120.4795         estimate D2E/DX2                !
 ! A47   A(18,21,25)           119.8422         estimate D2E/DX2                !
 ! A48   A(24,21,25)           119.6746         estimate D2E/DX2                !
 ! A49   A(19,22,20)           121.7865         estimate D2E/DX2                !
 ! A50   A(19,22,26)           118.9265         estimate D2E/DX2                !
 ! A51   A(20,22,26)           119.2819         estimate D2E/DX2                !
 ! A52   A(20,23,27)           120.4001         estimate D2E/DX2                !
 ! A53   A(20,23,28)           118.5463         estimate D2E/DX2                !
 ! A54   A(27,23,28)           121.0518         estimate D2E/DX2                !
 ! A55   A(21,24,27)           120.7548         estimate D2E/DX2                !
 ! A56   A(21,24,29)           119.6408         estimate D2E/DX2                !
 ! A57   A(27,24,29)           119.6039         estimate D2E/DX2                !
 ! A58   A(23,27,24)           120.1234         estimate D2E/DX2                !
 ! A59   A(23,27,30)           120.2019         estimate D2E/DX2                !
 ! A60   A(24,27,30)           119.672          estimate D2E/DX2                !
 ! A61   A(14,31,32)           108.9561         estimate D2E/DX2                !
 ! A62   A(14,31,33)           112.88           estimate D2E/DX2                !
 ! A63   A(14,31,37)            99.2754         estimate D2E/DX2                !
 ! A64   A(32,31,33)           118.6112         estimate D2E/DX2                !
 ! A65   A(32,31,37)           110.3039         estimate D2E/DX2                !
 ! A66   A(33,31,37)           104.9782         estimate D2E/DX2                !
 ! A67   A(17,34,35)           108.3817         estimate D2E/DX2                !
 ! A68   A(17,34,36)           111.9905         estimate D2E/DX2                !
 ! A69   A(17,34,37)           102.1602         estimate D2E/DX2                !
 ! A70   A(35,34,36)           120.0309         estimate D2E/DX2                !
 ! A71   A(35,34,37)           108.7294         estimate D2E/DX2                !
 ! A72   A(36,34,37)           103.9282         estimate D2E/DX2                !
 ! A73   A(31,37,34)           127.2658         estimate D2E/DX2                !
 ! A74   A(31,37,70)           112.5841         estimate D2E/DX2                !
 ! A75   A(34,37,70)           112.7569         estimate D2E/DX2                !
 ! A76   A(41,42,43)           121.2468         estimate D2E/DX2                !
 ! A77   A(41,42,44)           119.8327         estimate D2E/DX2                !
 ! A78   A(43,42,44)           118.9205         estimate D2E/DX2                !
 ! A79   A(42,43,45)           120.45           estimate D2E/DX2                !
 ! A80   A(42,43,66)           119.4546         estimate D2E/DX2                !
 ! A81   A(45,43,66)           120.0954         estimate D2E/DX2                !
 ! A82   A(42,44,46)           120.3262         estimate D2E/DX2                !
 ! A83   A(42,44,47)           118.7996         estimate D2E/DX2                !
 ! A84   A(46,44,47)           120.8742         estimate D2E/DX2                !
 ! A85   A(43,45,48)           120.0109         estimate D2E/DX2                !
 ! A86   A(43,45,49)           119.6917         estimate D2E/DX2                !
 ! A87   A(48,45,49)           120.2974         estimate D2E/DX2                !
 ! A88   A(44,46,48)           120.2899         estimate D2E/DX2                !
 ! A89   A(44,46,50)           119.5851         estimate D2E/DX2                !
 ! A90   A(48,46,50)           120.125          estimate D2E/DX2                !
 ! A91   A(45,48,46)           120.0026         estimate D2E/DX2                !
 ! A92   A(45,48,51)           119.6993         estimate D2E/DX2                !
 ! A93   A(46,48,51)           120.2982         estimate D2E/DX2                !
 ! A94   A(39,52,53)           119.8629         estimate D2E/DX2                !
 ! A95   A(39,52,54)           121.2151         estimate D2E/DX2                !
 ! A96   A(53,52,54)           118.9219         estimate D2E/DX2                !
 ! A97   A(52,53,55)           120.3247         estimate D2E/DX2                !
 ! A98   A(52,53,56)           118.8158         estimate D2E/DX2                !
 ! A99   A(55,53,56)           120.8595         estimate D2E/DX2                !
 ! A100  A(52,54,57)           120.4522         estimate D2E/DX2                !
 ! A101  A(52,54,62)           119.4249         estimate D2E/DX2                !
 ! A102  A(57,54,62)           120.1229         estimate D2E/DX2                !
 ! A103  A(53,55,58)           120.2915         estimate D2E/DX2                !
 ! A104  A(53,55,59)           119.5836         estimate D2E/DX2                !
 ! A105  A(58,55,59)           120.1249         estimate D2E/DX2                !
 ! A106  A(54,57,58)           120.0079         estimate D2E/DX2                !
 ! A107  A(54,57,60)           119.6953         estimate D2E/DX2                !
 ! A108  A(58,57,60)           120.2968         estimate D2E/DX2                !
 ! A109  A(55,58,57)           120.0018         estimate D2E/DX2                !
 ! A110  A(55,58,61)           120.3022         estimate D2E/DX2                !
 ! A111  A(57,58,61)           119.696          estimate D2E/DX2                !
 ! A112  A(54,62,63)           111.9578         estimate D2E/DX2                !
 ! A113  A(54,62,64)           111.9348         estimate D2E/DX2                !
 ! A114  A(54,62,65)           111.98           estimate D2E/DX2                !
 ! A115  A(63,62,64)           107.0107         estimate D2E/DX2                !
 ! A116  A(63,62,65)           107.032          estimate D2E/DX2                !
 ! A117  A(64,62,65)           106.5804         estimate D2E/DX2                !
 ! A118  A(43,66,67)           111.9415         estimate D2E/DX2                !
 ! A119  A(43,66,68)           111.9421         estimate D2E/DX2                !
 ! A120  A(43,66,69)           111.9697         estimate D2E/DX2                !
 ! A121  A(67,66,68)           107.0274         estimate D2E/DX2                !
 ! A122  A(67,66,69)           107.0348         estimate D2E/DX2                !
 ! A123  A(68,66,69)           106.5819         estimate D2E/DX2                !
 ! A124  L(13,38,39,33,-1)     187.2202         estimate D2E/DX2                !
 ! A125  L(38,39,52,64,-1)     180.7323         estimate D2E/DX2                !
 ! A126  L(19,40,41,36,-1)     187.1014         estimate D2E/DX2                !
 ! A127  L(40,41,42,68,-1)     180.7201         estimate D2E/DX2                !
 ! A128  L(13,38,39,33,-2)     179.7141         estimate D2E/DX2                !
 ! A129  L(38,39,52,64,-2)     179.9994         estimate D2E/DX2                !
 ! A130  L(19,40,41,36,-2)     179.6586         estimate D2E/DX2                !
 ! A131  L(40,41,42,68,-2)     179.8693         estimate D2E/DX2                !
 ! D1    D(6,1,2,3)             -0.0431         estimate D2E/DX2                !
 ! D2    D(6,1,2,8)           -179.3914         estimate D2E/DX2                !
 ! D3    D(7,1,2,3)            179.6608         estimate D2E/DX2                !
 ! D4    D(7,1,2,8)              0.3125         estimate D2E/DX2                !
 ! D5    D(2,1,6,5)              0.8526         estimate D2E/DX2                !
 ! D6    D(2,1,6,12)          -179.7741         estimate D2E/DX2                !
 ! D7    D(7,1,6,5)           -178.8514         estimate D2E/DX2                !
 ! D8    D(7,1,6,12)             0.5219         estimate D2E/DX2                !
 ! D9    D(1,2,3,4)             -1.2157         estimate D2E/DX2                !
 ! D10   D(1,2,3,9)            179.9456         estimate D2E/DX2                !
 ! D11   D(8,2,3,4)            178.1311         estimate D2E/DX2                !
 ! D12   D(8,2,3,9)             -0.7077         estimate D2E/DX2                !
 ! D13   D(2,3,4,5)              1.6842         estimate D2E/DX2                !
 ! D14   D(2,3,4,10)          -177.368          estimate D2E/DX2                !
 ! D15   D(9,3,4,5)           -179.4343         estimate D2E/DX2                !
 ! D16   D(9,3,4,10)             1.5135         estimate D2E/DX2                !
 ! D17   D(2,3,9,14)           175.8714         estimate D2E/DX2                !
 ! D18   D(2,3,9,16)            -2.5974         estimate D2E/DX2                !
 ! D19   D(4,3,9,14)            -2.9642         estimate D2E/DX2                !
 ! D20   D(4,3,9,16)           178.567          estimate D2E/DX2                !
 ! D21   D(3,4,5,6)             -0.914          estimate D2E/DX2                !
 ! D22   D(3,4,5,11)           179.5874         estimate D2E/DX2                !
 ! D23   D(10,4,5,6)           178.1283         estimate D2E/DX2                !
 ! D24   D(10,4,5,11)           -1.3703         estimate D2E/DX2                !
 ! D25   D(3,4,10,13)            1.0118         estimate D2E/DX2                !
 ! D26   D(3,4,10,15)         -179.9831         estimate D2E/DX2                !
 ! D27   D(5,4,10,13)         -178.0299         estimate D2E/DX2                !
 ! D28   D(5,4,10,15)            0.9753         estimate D2E/DX2                !
 ! D29   D(4,5,6,1)             -0.36           estimate D2E/DX2                !
 ! D30   D(4,5,6,12)          -179.7301         estimate D2E/DX2                !
 ! D31   D(11,5,6,1)           179.126          estimate D2E/DX2                !
 ! D32   D(11,5,6,12)           -0.2441         estimate D2E/DX2                !
 ! D33   D(3,9,14,13)            1.984          estimate D2E/DX2                !
 ! D34   D(3,9,14,31)         -173.5199         estimate D2E/DX2                !
 ! D35   D(16,9,14,13)        -179.6253         estimate D2E/DX2                !
 ! D36   D(16,9,14,31)           4.8708         estimate D2E/DX2                !
 ! D37   D(3,9,16,17)          109.9173         estimate D2E/DX2                !
 ! D38   D(3,9,16,18)          -70.3416         estimate D2E/DX2                !
 ! D39   D(14,9,16,17)         -68.4997         estimate D2E/DX2                !
 ! D40   D(14,9,16,18)         111.2414         estimate D2E/DX2                !
 ! D41   D(4,10,13,14)          -2.0263         estimate D2E/DX2                !
 ! D42   D(4,10,13,38)         178.7158         estimate D2E/DX2                !
 ! D43   D(15,10,13,14)        178.9657         estimate D2E/DX2                !
 ! D44   D(15,10,13,38)         -0.2921         estimate D2E/DX2                !
 ! D45   D(10,13,14,9)           0.5108         estimate D2E/DX2                !
 ! D46   D(10,13,14,31)        175.8437         estimate D2E/DX2                !
 ! D47   D(38,13,14,9)         179.7012         estimate D2E/DX2                !
 ! D48   D(38,13,14,31)         -4.9659         estimate D2E/DX2                !
 ! D49   D(10,13,52,53)        179.359          estimate D2E/DX2                !
 ! D50   D(10,13,52,54)         -0.9241         estimate D2E/DX2                !
 ! D51   D(14,13,52,53)          0.1222         estimate D2E/DX2                !
 ! D52   D(14,13,52,54)        179.8391         estimate D2E/DX2                !
 ! D53   D(9,14,31,32)         -47.4221         estimate D2E/DX2                !
 ! D54   D(9,14,31,33)         178.5899         estimate D2E/DX2                !
 ! D55   D(9,14,31,37)          67.9092         estimate D2E/DX2                !
 ! D56   D(13,14,31,32)        137.0288         estimate D2E/DX2                !
 ! D57   D(13,14,31,33)          3.0408         estimate D2E/DX2                !
 ! D58   D(13,14,31,37)       -107.6398         estimate D2E/DX2                !
 ! D59   D(9,16,17,19)        -177.9777         estimate D2E/DX2                !
 ! D60   D(9,16,17,34)           7.2668         estimate D2E/DX2                !
 ! D61   D(18,16,17,19)          2.285          estimate D2E/DX2                !
 ! D62   D(18,16,17,34)       -172.4706         estimate D2E/DX2                !
 ! D63   D(9,16,18,20)         177.1704         estimate D2E/DX2                !
 ! D64   D(9,16,18,21)          -3.9014         estimate D2E/DX2                !
 ! D65   D(17,16,18,20)         -3.0819         estimate D2E/DX2                !
 ! D66   D(17,16,18,21)        175.8463         estimate D2E/DX2                !
 ! D67   D(16,17,19,22)          0.2724         estimate D2E/DX2                !
 ! D68   D(16,17,19,40)        178.988          estimate D2E/DX2                !
 ! D69   D(34,17,19,22)        174.7941         estimate D2E/DX2                !
 ! D70   D(34,17,19,40)         -6.4904         estimate D2E/DX2                !
 ! D71   D(16,17,34,35)        -50.6605         estimate D2E/DX2                !
 ! D72   D(16,17,34,36)        174.6756         estimate D2E/DX2                !
 ! D73   D(16,17,34,37)         64.0312         estimate D2E/DX2                !
 ! D74   D(19,17,34,35)        134.5585         estimate D2E/DX2                !
 ! D75   D(19,17,34,36)         -0.1054         estimate D2E/DX2                !
 ! D76   D(19,17,34,37)       -110.7499         estimate D2E/DX2                !
 ! D77   D(16,18,20,22)          1.3897         estimate D2E/DX2                !
 ! D78   D(16,18,20,23)       -179.3438         estimate D2E/DX2                !
 ! D79   D(21,18,20,22)       -177.5806         estimate D2E/DX2                !
 ! D80   D(21,18,20,23)          1.6859         estimate D2E/DX2                !
 ! D81   D(16,18,21,24)        179.8701         estimate D2E/DX2                !
 ! D82   D(16,18,21,25)         -0.8296         estimate D2E/DX2                !
 ! D83   D(20,18,21,24)         -1.1994         estimate D2E/DX2                !
 ! D84   D(20,18,21,25)        178.1008         estimate D2E/DX2                !
 ! D85   D(17,19,22,20)         -2.033          estimate D2E/DX2                !
 ! D86   D(17,19,22,26)        178.7985         estimate D2E/DX2                !
 ! D87   D(40,19,22,20)        179.1453         estimate D2E/DX2                !
 ! D88   D(40,19,22,26)         -0.0233         estimate D2E/DX2                !
 ! D89   D(17,19,42,43)       -177.7809         estimate D2E/DX2                !
 ! D90   D(17,19,42,44)          2.3377         estimate D2E/DX2                !
 ! D91   D(22,19,42,43)          0.7196         estimate D2E/DX2                !
 ! D92   D(22,19,42,44)       -179.1618         estimate D2E/DX2                !
 ! D93   D(18,20,22,19)          1.1942         estimate D2E/DX2                !
 ! D94   D(18,20,22,26)       -179.6401         estimate D2E/DX2                !
 ! D95   D(23,20,22,19)       -178.0635         estimate D2E/DX2                !
 ! D96   D(23,20,22,26)          1.1021         estimate D2E/DX2                !
 ! D97   D(18,20,23,27)         -0.9208         estimate D2E/DX2                !
 ! D98   D(18,20,23,28)        179.5563         estimate D2E/DX2                !
 ! D99   D(22,20,23,27)        178.3373         estimate D2E/DX2                !
 ! D100  D(22,20,23,28)         -1.1856         estimate D2E/DX2                !
 ! D101  D(18,21,24,27)         -0.0723         estimate D2E/DX2                !
 ! D102  D(18,21,24,29)        179.6599         estimate D2E/DX2                !
 ! D103  D(25,21,24,27)       -179.3738         estimate D2E/DX2                !
 ! D104  D(25,21,24,29)          0.3585         estimate D2E/DX2                !
 ! D105  D(20,23,27,24)         -0.3649         estimate D2E/DX2                !
 ! D106  D(20,23,27,30)       -179.7769         estimate D2E/DX2                !
 ! D107  D(28,23,27,24)        179.1458         estimate D2E/DX2                !
 ! D108  D(28,23,27,30)         -0.2661         estimate D2E/DX2                !
 ! D109  D(21,24,27,23)          0.8759         estimate D2E/DX2                !
 ! D110  D(21,24,27,30)       -179.709          estimate D2E/DX2                !
 ! D111  D(29,24,27,23)       -178.8564         estimate D2E/DX2                !
 ! D112  D(29,24,27,30)          0.5587         estimate D2E/DX2                !
 ! D113  D(14,31,37,34)        -42.2841         estimate D2E/DX2                !
 ! D114  D(14,31,37,70)        170.2693         estimate D2E/DX2                !
 ! D115  D(32,31,37,34)         72.0074         estimate D2E/DX2                !
 ! D116  D(32,31,37,70)        -75.4393         estimate D2E/DX2                !
 ! D117  D(33,31,37,34)       -159.1242         estimate D2E/DX2                !
 ! D118  D(33,31,37,70)         53.4292         estimate D2E/DX2                !
 ! D119  D(17,34,37,31)        -36.682          estimate D2E/DX2                !
 ! D120  D(17,34,37,70)        110.7185         estimate D2E/DX2                !
 ! D121  D(35,34,37,31)         77.7542         estimate D2E/DX2                !
 ! D122  D(35,34,37,70)       -134.8453         estimate D2E/DX2                !
 ! D123  D(36,34,37,31)       -153.3031         estimate D2E/DX2                !
 ! D124  D(36,34,37,70)         -5.9026         estimate D2E/DX2                !
 ! D125  D(41,42,43,45)       -179.8883         estimate D2E/DX2                !
 ! D126  D(41,42,43,66)          0.1574         estimate D2E/DX2                !
 ! D127  D(44,42,43,45)          0.0358         estimate D2E/DX2                !
 ! D128  D(44,42,43,66)       -179.9185         estimate D2E/DX2                !
 ! D129  D(41,42,44,46)        179.9099         estimate D2E/DX2                !
 ! D130  D(41,42,44,47)         -0.0752         estimate D2E/DX2                !
 ! D131  D(43,42,44,46)         -0.0153         estimate D2E/DX2                !
 ! D132  D(43,42,44,47)        179.9996         estimate D2E/DX2                !
 ! D133  D(42,43,45,48)         -0.026          estimate D2E/DX2                !
 ! D134  D(42,43,45,49)        179.99           estimate D2E/DX2                !
 ! D135  D(66,43,45,48)        179.928          estimate D2E/DX2                !
 ! D136  D(66,43,45,49)         -0.0561         estimate D2E/DX2                !
 ! D137  D(42,43,66,67)        179.922          estimate D2E/DX2                !
 ! D138  D(42,43,66,68)         59.7475         estimate D2E/DX2                !
 ! D139  D(42,43,66,69)        -59.8747         estimate D2E/DX2                !
 ! D140  D(45,43,66,67)         -0.0324         estimate D2E/DX2                !
 ! D141  D(45,43,66,68)       -120.2069         estimate D2E/DX2                !
 ! D142  D(45,43,66,69)        120.1708         estimate D2E/DX2                !
 ! D143  D(42,44,46,48)         -0.0148         estimate D2E/DX2                !
 ! D144  D(42,44,46,50)        179.979          estimate D2E/DX2                !
 ! D145  D(47,44,46,48)        179.97           estimate D2E/DX2                !
 ! D146  D(47,44,46,50)         -0.0362         estimate D2E/DX2                !
 ! D147  D(43,45,48,46)         -0.0046         estimate D2E/DX2                !
 ! D148  D(43,45,48,51)       -179.987          estimate D2E/DX2                !
 ! D149  D(49,45,48,46)        179.9794         estimate D2E/DX2                !
 ! D150  D(49,45,48,51)         -0.0031         estimate D2E/DX2                !
 ! D151  D(44,46,48,45)          0.025          estimate D2E/DX2                !
 ! D152  D(44,46,48,51)       -179.9926         estimate D2E/DX2                !
 ! D153  D(50,46,48,45)       -179.9688         estimate D2E/DX2                !
 ! D154  D(50,46,48,51)          0.0136         estimate D2E/DX2                !
 ! D155  D(39,52,53,55)        179.8907         estimate D2E/DX2                !
 ! D156  D(39,52,53,56)         -0.0755         estimate D2E/DX2                !
 ! D157  D(54,52,53,55)          0.0181         estimate D2E/DX2                !
 ! D158  D(54,52,53,56)       -179.9481         estimate D2E/DX2                !
 ! D159  D(39,52,54,57)       -179.8784         estimate D2E/DX2                !
 ! D160  D(39,52,54,62)          0.1672         estimate D2E/DX2                !
 ! D161  D(53,52,54,57)         -0.0076         estimate D2E/DX2                !
 ! D162  D(53,52,54,62)       -179.962          estimate D2E/DX2                !
 ! D163  D(52,53,55,58)         -0.0173         estimate D2E/DX2                !
 ! D164  D(52,53,55,59)        179.9971         estimate D2E/DX2                !
 ! D165  D(56,53,55,58)        179.9483         estimate D2E/DX2                !
 ! D166  D(56,53,55,59)         -0.0373         estimate D2E/DX2                !
 ! D167  D(52,54,57,58)         -0.004          estimate D2E/DX2                !
 ! D168  D(52,54,57,60)        179.9636         estimate D2E/DX2                !
 ! D169  D(62,54,57,58)        179.9502         estimate D2E/DX2                !
 ! D170  D(62,54,57,60)         -0.0823         estimate D2E/DX2                !
 ! D171  D(52,54,62,63)       -179.5695         estimate D2E/DX2                !
 ! D172  D(52,54,62,64)         60.2712         estimate D2E/DX2                !
 ! D173  D(52,54,62,65)        -59.3512         estimate D2E/DX2                !
 ! D174  D(57,54,62,63)          0.4759         estimate D2E/DX2                !
 ! D175  D(57,54,62,64)       -119.6834         estimate D2E/DX2                !
 ! D176  D(57,54,62,65)        120.6942         estimate D2E/DX2                !
 ! D177  D(53,55,58,57)          0.0055         estimate D2E/DX2                !
 ! D178  D(53,55,58,61)       -179.9735         estimate D2E/DX2                !
 ! D179  D(59,55,58,57)        179.991          estimate D2E/DX2                !
 ! D180  D(59,55,58,61)          0.012          estimate D2E/DX2                !
 ! D181  D(54,57,58,55)          0.0051         estimate D2E/DX2                !
 ! D182  D(54,57,58,61)        179.9842         estimate D2E/DX2                !
 ! D183  D(60,57,58,55)       -179.9623         estimate D2E/DX2                !
 ! D184  D(60,57,58,61)          0.0168         estimate D2E/DX2                !
 --------------------------------------------------------------------------------
 Trust Radius=3.00D-01 FncErr=1.00D-07 GrdErr=1.00D-06 EigMax=2.50D+02 EigMin=1.00D-04
 Number of steps in this run=    401 maximum allowed number of steps=    420.
 GradGradGradGradGradGradGradGradGradGradGradGradGradGradGradGradGradGrad

 Leave Link  103 at Thu May 15 10:10:24 2025, MaxMem=  8321499136 cpu:               0.8 elap:               0.1
 (Enter /cm/shared/apps/spack/cpu/opt/spack/linux-centos8-zen/gcc-8.3.1/gaussian-16.C.01-po5bqktfeugvmjyga3v7eigbecnokxng/g16/l202.exe)
 Symmetry turned off by external request.
 Stoichiometry    C38H18F6INO4S2
 Framework group  C1[X(C38H18F6INO4S2)]
 Deg. of freedom   204
 Full point group                 C1      NOp   1
                          Input orientation:                          
 ---------------------------------------------------------------------
 Center     Atomic      Atomic             Coordinates (Angstroms)
 Number     Number       Type             X           Y           Z
 ---------------------------------------------------------------------
      1          6           0       -2.565120    6.274222   -1.542114
      2          6           0       -2.580134    5.081789   -0.859193
      3          6           0       -1.363700    4.476879   -0.435495
      4          6           0       -0.134174    5.119960   -0.757334
      5          6           0       -0.150803    6.358541   -1.456375
      6          6           0       -1.341295    6.924990   -1.837031
      7          1           0       -3.505604    6.722693   -1.865157
      8          1           0       -3.531372    4.591991   -0.650772
      9          6           0       -1.329232    3.235015    0.280224
     10          6           0        1.089652    4.511066   -0.396655
     11          1           0        0.801093    6.839671   -1.688171
     12          1           0       -1.349999    7.872942   -2.376941
     13          6           0        1.132764    3.288536    0.247312
     14          6           0       -0.108426    2.658503    0.587679
     15          1           0        2.027604    5.010108   -0.646466
     16          6           0       -2.640074    2.595183    0.635351
     17          6           0       -3.078811    1.430149    0.030390
     18          6           0       -3.448468    3.221037    1.639179
     19          6           0       -4.350339    0.850455    0.345349
     20          6           0       -4.722027    2.660617    1.943983
     21          6           0       -3.018745    4.369692    2.360598
     22          6           0       -5.148294    1.489653    1.276762
     23          6           0       -5.543517    3.277356    2.927922
     24          6           0       -3.829694    4.938123    3.313419
     25          1           0       -2.034664    4.796295    2.165169
     26          1           0       -6.127784    1.068535    1.510574
     27          6           0       -5.107890    4.394371    3.595307
     28          1           0       -6.519157    2.837916    3.142783
     29          1           0       -3.484215    5.815292    3.862313
     30          1           0       -5.739110    4.862659    4.351946
     31         16           0       -0.139931    1.046023    1.313343
     32          8           0       -1.092287    1.033098    2.368750
     33          8           0        1.156792    0.527810    1.562177
     34         16           0       -1.934136    0.609110   -1.047327
     35          8           0       -1.425182    1.560387   -1.967307
     36          8           0       -2.440850   -0.630692   -1.515324
     37          7           0       -0.711135    0.172460    0.004890
     38          6           0        2.431279    2.757947    0.536920
     39          6           0        3.586621    2.435150    0.716921
     40          6           0       -4.881771   -0.338378   -0.251484
     41          6           0       -5.455802   -1.319200   -0.675780
     42          6           0       -6.117951   -2.483047   -1.184298
     43          6           0       -7.411333   -2.838099   -0.748192
     44          6           0       -5.475966   -3.292519   -2.133040
     45          6           0       -8.037982   -3.973234   -1.251370
     46          6           0       -6.109330   -4.427227   -2.632847
     47          1           0       -4.475924   -3.016141   -2.468871
     48          6           0       -7.387318   -4.769421   -2.194654
     49          1           0       -9.037725   -4.236199   -0.905534
     50          1           0       -5.598984   -5.048001   -3.370652
     51          1           0       -7.883526   -5.658303   -2.585986
     52          6           0        4.945557    2.036541    0.931094
     53          6           0        5.223901    0.827132    1.584714
     54          6           0        6.020095    2.838333    0.493403
     55          6           0        6.541291    0.429214    1.795949
     56          1           0        4.391749    0.208123    1.921651
     57          6           0        7.333706    2.434655    0.707516
     58          6           0        7.595846    1.229075    1.359397
     59          1           0        6.743943   -0.513821    2.305707
     60          1           0        8.154833    3.063694    0.363519
     61          1           0        8.627868    0.917333    1.524390
     62          6           0        5.733945    4.140732   -0.209530
     63          9           0        6.853742    4.771786   -0.565666
     64          9           0        5.038540    4.983325    0.562910
     65          9           0        5.014503    3.961293   -1.322540
     66          6           0       -8.113165   -1.975690    0.269724
     67          9           0       -9.323507   -2.447011    0.572569
     68          9           0       -8.278864   -0.721925   -0.166452
     69          9           0       -7.426631   -1.893895    1.414937
     70         53           0       -0.610038   -1.833066    0.302456
 ---------------------------------------------------------------------
 Rotational constants (GHZ):           0.0772405           0.0255843           0.0216352
 Leave Link  202 at Thu May 15 10:10:24 2025, MaxMem=  8321499136 cpu:               1.0 elap:               0.1
 (Enter /cm/shared/apps/spack/cpu/opt/spack/linux-centos8-zen/gcc-8.3.1/gaussian-16.C.01-po5bqktfeugvmjyga3v7eigbecnokxng/g16/l301.exe)
 General basis read from cards:  (5D, 7F)
 Centers:       1      2      3      4      5      6      9     10     13     14
 Centers:      16     17     18     19     20     21     22     23     24     27
 Centers:      38     39     40     41     42     43     44     45     46     48
 Centers:      52     53     54     55     57     58     62     66      7      8
 Centers:      11     12     15     25     26     28     29     30     47     49
 Centers:      50     51     56     59     60     61     37     63     64     65
 Centers:      67     68     69     32     33     35     36
 def2svp
 ****
 Centers:      70     31     34
 def2tzvp
 ****
 ======================================================================================================
                                       Pseudopotential Parameters
 ======================================================================================================
  Center     Atomic      Valence      Angular      Power
  Number     Number     Electrons     Momentum     of R      Exponent        Coefficient   SO-Coeffient
 ======================================================================================================
    1          6
                                   No pseudopotential on this center.
    2          6
                                   No pseudopotential on this center.
    3          6
                                   No pseudopotential on this center.
    4          6
                                   No pseudopotential on this center.
    5          6
                                   No pseudopotential on this center.
    6          6
                                   No pseudopotential on this center.
    7          1
                                   No pseudopotential on this center.
    8          1
                                   No pseudopotential on this center.
    9          6
                                   No pseudopotential on this center.
   10          6
                                   No pseudopotential on this center.
   11          1
                                   No pseudopotential on this center.
   12          1
                                   No pseudopotential on this center.
   13          6
                                   No pseudopotential on this center.
   14          6
                                   No pseudopotential on this center.
   15          1
                                   No pseudopotential on this center.
   16          6
                                   No pseudopotential on this center.
   17          6
                                   No pseudopotential on this center.
   18          6
                                   No pseudopotential on this center.
   19          6
                                   No pseudopotential on this center.
   20          6
                                   No pseudopotential on this center.
   21          6
                                   No pseudopotential on this center.
   22          6
                                   No pseudopotential on this center.
   23          6
                                   No pseudopotential on this center.
   24          6
                                   No pseudopotential on this center.
   25          1
                                   No pseudopotential on this center.
   26          1
                                   No pseudopotential on this center.
   27          6
                                   No pseudopotential on this center.
   28          1
                                   No pseudopotential on this center.
   29          1
                                   No pseudopotential on this center.
   30          1
                                   No pseudopotential on this center.
   31         16
                                   No pseudopotential on this center.
   32          8
                                   No pseudopotential on this center.
   33          8
                                   No pseudopotential on this center.
   34         16
                                   No pseudopotential on this center.
   35          8
                                   No pseudopotential on this center.
   36          8
                                   No pseudopotential on this center.
   37          7
                                   No pseudopotential on this center.
   38          6
                                   No pseudopotential on this center.
   39          6
                                   No pseudopotential on this center.
   40          6
                                   No pseudopotential on this center.
   41          6
                                   No pseudopotential on this center.
   42          6
                                   No pseudopotential on this center.
   43          6
                                   No pseudopotential on this center.
   44          6
                                   No pseudopotential on this center.
   45          6
                                   No pseudopotential on this center.
   46          6
                                   No pseudopotential on this center.
   47          1
                                   No pseudopotential on this center.
   48          6
                                   No pseudopotential on this center.
   49          1
                                   No pseudopotential on this center.
   50          1
                                   No pseudopotential on this center.
   51          1
                                   No pseudopotential on this center.
   52          6
                                   No pseudopotential on this center.
   53          6
                                   No pseudopotential on this center.
   54          6
                                   No pseudopotential on this center.
   55          6
                                   No pseudopotential on this center.
   56          1
                                   No pseudopotential on this center.
   57          6
                                   No pseudopotential on this center.
   58          6
                                   No pseudopotential on this center.
   59          1
                                   No pseudopotential on this center.
   60          1
                                   No pseudopotential on this center.
   61          1
                                   No pseudopotential on this center.
   62          6
                                   No pseudopotential on this center.
   63          9
                                   No pseudopotential on this center.
   64          9
                                   No pseudopotential on this center.
   65          9
                                   No pseudopotential on this center.
   66          6
                                   No pseudopotential on this center.
   67          9
                                   No pseudopotential on this center.
   68          9
                                   No pseudopotential on this center.
   69          9
                                   No pseudopotential on this center.
   70         53           25
                                      G and up 
                                                     2        1.0000000        0.00000000    0.00000000
                                      S - G
                                                     2       40.0158350       49.99429300    0.00000000
                                                     2       17.4297470      281.02531700    0.00000000
                                                     2        9.0054840       61.57332600    0.00000000
                                      P - G
                                                     2       15.3554660       67.44284100 -134.88568300
                                                     2       14.9718330      134.88113700  134.88113700
                                                     2        8.9601640       14.67505100  -29.35010100
                                                     2        8.2590960       29.37566600   29.37566600
                                      D - G
                                                     2       15.0689080       35.43952900  -35.43952900
                                                     2       14.5553220       53.17605700   35.45070400
                                                     2        6.7186470        9.06719500   -9.06719500
                                                     2        6.4563930       13.20693700    8.80462400
                                                     2        1.1917790        0.08933500   -0.08933500
                                                     2        1.2911570        0.05238000    0.03492000
                                      F - G
                                                     2       19.4586090      -21.84204000   14.56136000
                                                     2       19.3492600      -28.46819100  -14.23409500
                                                     2        4.8237670       -0.24371300    0.16247500
                                                     2        4.8843150       -0.32080400   -0.16040200
 ======================================================================================================
 Ernie: Thresh=  0.10000D-02 Tol=  0.10000D-05 Strict=F.
   900 basis functions,  1598 primitive gaussians,   968 cartesian basis functions
   198 alpha electrons      198 beta electrons
       nuclear repulsion energy      7844.0709801126 Hartrees.
 IExCor= 4336 DFT=T Ex+Corr=M062X ExCW=0 ScaHFX=  0.540000
 ScaDFX=  1.000000  1.000000  1.000000  1.000000 ScalE2=  1.000000  1.000000
 IRadAn=      5 IRanWt=     -1 IRanGd=            0 ICorTp=0 IEmpDi=131
 NAtoms=   70 NActive=   70 NUniq=   70 SFac= 1.00D+00 NAtFMM=   60 NAOKFM=T Big=T
 Integral buffers will be    131072 words long.
 Raffenetti 2 integral format.
 Two-electron integral symmetry is turned off.
 R6Disp:  Grimme-D3 Dispersion energy=       -0.0072426869 Hartrees.
 Nuclear repulsion after empirical dispersion term =     7844.0637374257 Hartrees.
 ------------------------------------------------------------------------------
 Polarizable Continuum Model (PCM)
 =================================
 Model                : PCM.
 Atomic radii         : SMD-Coulomb.
 Polarization charges : Total charges.
 Charge compensation  : None.
 Solution method      : On-the-fly selection.
 Cavity type          : VdW (van der Waals Surface) (Alpha=1.000).
 Cavity algorithm     : GePol (No added spheres)
                        Default sphere list used, NSphG=   70.
                        Lebedev-Laikov grids with approx.  5.0 points / Ang**2.
                        Smoothing algorithm: York/Karplus (Gamma=1.0000).
                        Polarization charges: spherical gaussians, with
                                              point-specific exponents (IZeta= 3).
                        Self-potential: point-specific (ISelfS= 7).
                        Self-field    : sphere-specific E.n sum rule (ISelfD= 2).
 1st derivatives      : Analytical E(r).r(x)/FMM algorithm (CHGder, D1EAlg=3).
                        Cavity 1st derivative terms included.
 Solvent              : PropylEthanoate, Eps=   5.520500 Eps(inf)=   1.916010
 ------------------------------------------------------------------------------
 GePol: Number of generator spheres                  =      70
 GePol: Total number of spheres                      =      70
 GePol: Number of exposed spheres                    =      70 (100.00%)
 GePol: Number of points                             =    5685
 GePol: Average weight of points                     =       0.12
 GePol: Minimum weight of points                     =   0.10D-08
 GePol: Maximum weight of points                     =    0.21501
 GePol: Number of points with low weight             =     325
 GePol: Fraction of low-weight points (<1% of avg)   =       5.72%
 GePol: Cavity surface area                          =    673.821 Ang**2
 GePol: Cavity volume                                =    725.327 Ang**3
 ------------------------------------------------------------------------------
 Atomic radii for non-electrostatic terms: SMD-CDS.
 ------------------------------------------------------------------------------
 PCM non-electrostatic energy =        -0.0149924009 Hartrees.
 Nuclear repulsion after PCM non-electrostatic terms =     7844.0487450247 Hartrees.
 Leave Link  301 at Thu May 15 10:10:25 2025, MaxMem=  8321499136 cpu:               3.1 elap:               0.1
 (Enter /cm/shared/apps/spack/cpu/opt/spack/linux-centos8-zen/gcc-8.3.1/gaussian-16.C.01-po5bqktfeugvmjyga3v7eigbecnokxng/g16/l302.exe)
 NPDir=0 NMtPBC=     1 NCelOv=     1 NCel=       1 NClECP=     1 NCelD=      1
         NCelK=      1 NCelE2=     1 NClLst=     1 CellRange=     0.0.
 One-electron integrals computed using PRISM.
   1 Symmetry operations used in ECPInt.
 ECPInt:  NShTT=   76245 NPrTT=  292264 LenC2=   52029 LenP2D=  121278.
 LDataN:  DoStor=T MaxTD1= 7 Len=  274
 NBasis=   900 RedAO= T EigKep=  1.58D-04  NBF=   900
 NBsUse=   900 1.00D-06 EigRej= -1.00D+00 NBFU=   900
 Precomputing XC quadrature grid using
 IXCGrd= 4 IRadAn=           5 IRanWt=          -1 IRanGd=           0 AccXCQ= 0.00D+00.
 Defaulting to unpruned grid for atomic number  53.
 Generated NRdTot=       0 NPtTot=           0 NUsed=           0 NTot=          32
 NSgBfM=   858   852   855   858   858 MxSgAt=    70 MxSgA2=    70.
 Leave Link  302 at Thu May 15 10:10:28 2025, MaxMem=  8321499136 cpu:              82.8 elap:               3.0
 (Enter /cm/shared/apps/spack/cpu/opt/spack/linux-centos8-zen/gcc-8.3.1/gaussian-16.C.01-po5bqktfeugvmjyga3v7eigbecnokxng/g16/l303.exe)
 DipDrv:  MaxL=1.
 Leave Link  303 at Thu May 15 10:10:28 2025, MaxMem=  8321499136 cpu:               3.4 elap:               0.2
 (Enter /cm/shared/apps/spack/cpu/opt/spack/linux-centos8-zen/gcc-8.3.1/gaussian-16.C.01-po5bqktfeugvmjyga3v7eigbecnokxng/g16/l401.exe)
 ExpMin= 7.49D-02 ExpMax= 6.07D+04 ExpMxC= 2.07D+03 IAcc=3 IRadAn=         5 AccDes= 0.00D+00
 Harris functional with IExCor= 1009 and IRadAn=       5 diagonalized for initial guess.
 HarFok:  IExCor= 1009 AccDes= 0.00D+00 IRadAn=         5 IDoV= 1 UseB2=F ITyADJ=14
 ICtDFT=  3500011 ScaDFX=  1.000000  1.000000  1.000000  1.000000
 Defaulting to unpruned grid for atomic number  53.
 FoFCou: FMM=F IPFlag=           0 FMFlag=      100000 FMFlg1=        2001
         NFxFlg=           0 DoJE=T BraDBF=F KetDBF=T FulRan=T
         wScrn=  0.000000 ICntrl=       500 IOpCl=  0 I1Cent=   200000004 NGrid=           0
         NMat0=    1 NMatS0=      1 NMatT0=    0 NMatD0=    1 NMtDS0=    0 NMtDT0=    0
 Symmetry not used in FoFCou.
 Harris En= -3503.53671468998    
 JPrj=0 DoOrth=F DoCkMO=F.
 Leave Link  401 at Thu May 15 10:10:31 2025, MaxMem=  8321499136 cpu:              83.6 elap:               2.8
 (Enter /cm/shared/apps/spack/cpu/opt/spack/linux-centos8-zen/gcc-8.3.1/gaussian-16.C.01-po5bqktfeugvmjyga3v7eigbecnokxng/g16/l502.exe)
 Two-electron integral symmetry not used.
 Closed shell SCF:
 Using DIIS extrapolation, IDIIS=  1040.
 NGot=  8321499136 LenX=  8319585326 LenY=  8318647334
 Requested convergence on RMS density matrix=1.00D-08 within 128 cycles.
 Requested convergence on MAX density matrix=1.00D-06.
 Requested convergence on             energy=1.00D-06.
 No special actions if energy rises.
 Fock matrices will be formed incrementally for  20 cycles.

 Cycle   1  Pass 1  IDiag  1:
 FoFJK:  IHMeth= 1 ICntrl=       0 DoSepK=F KAlg= 0 I1Cent=           0 FoldK=F
 IRaf= 730000000 NMat=       1 IRICut=       1 DoRegI=T DoRafI=F ISym2E= 0 IDoP0=0 IntGTp=1.
 FoFCou: FMM=T IPFlag=           0 FMFlag=      100000 FMFlg1=        2001
         NFxFlg=           0 DoJE=F BraDBF=F KetDBF=F FulRan=T
         wScrn=  0.000000 ICntrl=         0 IOpCl=  0 I1Cent=           0 NGrid=           0
         NMat0=    1 NMatS0=      1 NMatT0=    0 NMatD0=    1 NMtDS0=    0 NMtDT0=    0
 Symmetry not used in FoFCou.
 FMM levels:  10  Number of levels for PrismC:   9
 Defaulting to unpruned grid for atomic number  53.
 Defaulting to unpruned grid for atomic number  53.
 Defaulting to unpruned grid for atomic number  53.
 Defaulting to unpruned grid for atomic number  53.
 Defaulting to unpruned grid for atomic number  53.
 Defaulting to unpruned grid for atomic number  53.
 Defaulting to unpruned grid for atomic number  53.
 Defaulting to unpruned grid for atomic number  53.
 Defaulting to unpruned grid for atomic number  53.
 Defaulting to unpruned grid for atomic number  53.
 Defaulting to unpruned grid for atomic number  53.
 Defaulting to unpruned grid for atomic number  53.
 Defaulting to unpruned grid for atomic number  53.
 Defaulting to unpruned grid for atomic number  53.
 Defaulting to unpruned grid for atomic number  53.
 Defaulting to unpruned grid for atomic number  53.
 Defaulting to unpruned grid for atomic number  53.
 Defaulting to unpruned grid for atomic number  53.
 Defaulting to unpruned grid for atomic number  53.
 Defaulting to unpruned grid for atomic number  53.
 Defaulting to unpruned grid for atomic number  53.
 Defaulting to unpruned grid for atomic number  53.
 Defaulting to unpruned grid for atomic number  53.
 Defaulting to unpruned grid for atomic number  53.
 Defaulting to unpruned grid for atomic number  53.
 Defaulting to unpruned grid for atomic number  53.
 Defaulting to unpruned grid for atomic number  53.
 Defaulting to unpruned grid for atomic number  53.
 Defaulting to unpruned grid for atomic number  53.
 Defaulting to unpruned grid for atomic number  53.
 Defaulting to unpruned grid for atomic number  53.
 Defaulting to unpruned grid for atomic number  53.
 Inv3:  Mode=1 IEnd=    96957675.
 Iteration    1 A*A^-1 deviation from unit magnitude is 3.55D-15 for   5531.
 Iteration    1 A*A^-1 deviation from orthogonality  is 3.00D-15 for   3584   2400.
 Iteration    1 A^-1*A deviation from unit magnitude is 3.44D-15 for    507.
 Iteration    1 A^-1*A deviation from orthogonality  is 3.53D-10 for   1685   1648.
 Iteration    2 A*A^-1 deviation from unit magnitude is 2.22D-15 for   4645.
 Iteration    2 A*A^-1 deviation from orthogonality  is 3.77D-15 for   4268   2367.
 Iteration    2 A^-1*A deviation from unit magnitude is 1.78D-15 for   3915.
 Iteration    2 A^-1*A deviation from orthogonality  is 1.78D-15 for   4078   1629.
 E= -3503.75252404989    
 DIIS: error= 3.17D-02 at cycle   1 NSaved=   1.
 NSaved= 1 IEnMin= 1 EnMin= -3503.75252404989     IErMin= 1 ErrMin= 3.17D-02
 ErrMax= 3.17D-02  0.00D+00 EMaxC= 1.00D-01 BMatC= 1.35D+00 BMatP= 1.35D+00
 IDIUse=3 WtCom= 6.83D-01 WtEn= 3.17D-01
 Coeff-Com:  0.100D+01
 Coeff-En:   0.100D+01
 Coeff:      0.100D+01
 Gap=     0.390 Goal=   None    Shift=    0.000
 GapD=    0.390 DampG=1.000 DampE=0.500 DampFc=0.5000 IDamp=-1.
 Damping current iteration by 5.00D-01
 RMSDP=2.89D-03 MaxDP=2.72D-01              OVMax= 1.89D-01

 Cycle   2  Pass 1  IDiag  1:
 RMSU=  1.41D-03    CP:  9.79D-01
 E= -3504.18733932113     Delta-E=       -0.434815271234 Rises=F Damp=T
 DIIS: error= 8.52D-03 at cycle   2 NSaved=   2.
 NSaved= 2 IEnMin= 2 EnMin= -3504.18733932113     IErMin= 2 ErrMin= 8.52D-03
 ErrMax= 8.52D-03  0.00D+00 EMaxC= 1.00D-01 BMatC= 1.46D-01 BMatP= 1.35D+00
 IDIUse=3 WtCom= 9.15D-01 WtEn= 8.52D-02
 Coeff-Com:  0.732D-01 0.927D+00
 Coeff-En:   0.140D+00 0.860D+00
 Coeff:      0.788D-01 0.921D+00
 Gap=     0.224 Goal=   None    Shift=    0.000
 RMSDP=1.13D-03 MaxDP=9.09D-02 DE=-4.35D-01 OVMax= 1.60D-01

 Cycle   3  Pass 1  IDiag  1:
 RMSU=  1.09D-03    CP:  9.59D-01  1.06D+00
 E= -3504.72368827447     Delta-E=       -0.536348953347 Rises=F Damp=F
 DIIS: error= 1.02D-02 at cycle   3 NSaved=   3.
 NSaved= 3 IEnMin= 3 EnMin= -3504.72368827447     IErMin= 2 ErrMin= 8.52D-03
 ErrMax= 1.02D-02  0.00D+00 EMaxC= 1.00D-01 BMatC= 1.30D-01 BMatP= 1.46D-01
 IDIUse=3 WtCom= 8.98D-01 WtEn= 1.02D-01
 Coeff-Com: -0.600D-01 0.500D+00 0.560D+00
 Coeff-En:   0.000D+00 0.000D+00 0.100D+01
 Coeff:     -0.539D-01 0.449D+00 0.605D+00
 Gap=     0.211 Goal=   None    Shift=    0.000
 RMSDP=5.84D-04 MaxDP=5.27D-02 DE=-5.36D-01 OVMax= 5.02D-02

 Cycle   4  Pass 1  IDiag  1:
 RMSU=  3.61D-04    CP:  9.62D-01  1.16D+00  6.01D-01
 E= -3504.81981277278     Delta-E=       -0.096124498305 Rises=F Damp=F
 DIIS: error= 3.36D-03 at cycle   4 NSaved=   4.
 NSaved= 4 IEnMin= 4 EnMin= -3504.81981277278     IErMin= 4 ErrMin= 3.36D-03
 ErrMax= 3.36D-03  0.00D+00 EMaxC= 1.00D-01 BMatC= 1.87D-02 BMatP= 1.30D-01
 IDIUse=3 WtCom= 9.66D-01 WtEn= 3.36D-02
 Coeff-Com: -0.303D-01 0.115D+00 0.318D+00 0.597D+00
 Coeff-En:   0.000D+00 0.000D+00 0.108D+00 0.892D+00
 Coeff:     -0.293D-01 0.112D+00 0.311D+00 0.606D+00
 Gap=     0.213 Goal=   None    Shift=    0.000
 RMSDP=1.86D-04 MaxDP=2.65D-02 DE=-9.61D-02 OVMax= 1.77D-02

 Cycle   5  Pass 1  IDiag  1:
 RMSU=  9.39D-05    CP:  9.62D-01  1.13D+00  7.01D-01  6.96D-01
 E= -3504.83485159625     Delta-E=       -0.015038823472 Rises=F Damp=F
 DIIS: error= 6.00D-04 at cycle   5 NSaved=   5.
 NSaved= 5 IEnMin= 5 EnMin= -3504.83485159625     IErMin= 5 ErrMin= 6.00D-04
 ErrMax= 6.00D-04  0.00D+00 EMaxC= 1.00D-01 BMatC= 1.08D-03 BMatP= 1.87D-02
 IDIUse=3 WtCom= 9.94D-01 WtEn= 6.00D-03
 Coeff-Com: -0.918D-02 0.126D-01 0.931D-01 0.285D+00 0.618D+00
 Coeff-En:   0.000D+00 0.000D+00 0.000D+00 0.000D+00 0.100D+01
 Coeff:     -0.913D-02 0.126D-01 0.925D-01 0.283D+00 0.621D+00
 Gap=     0.211 Goal=   None    Shift=    0.000
 RMSDP=4.51D-05 MaxDP=5.50D-03 DE=-1.50D-02 OVMax= 4.75D-03

 Cycle   6  Pass 1  IDiag  1:
 RMSU=  3.06D-05    CP:  9.61D-01  1.14D+00  7.02D-01  7.31D-01  7.21D-01
 E= -3504.83579353807     Delta-E=       -0.000941941817 Rises=F Damp=F
 DIIS: error= 1.90D-04 at cycle   6 NSaved=   6.
 NSaved= 6 IEnMin= 6 EnMin= -3504.83579353807     IErMin= 6 ErrMin= 1.90D-04
 ErrMax= 1.90D-04  0.00D+00 EMaxC= 1.00D-01 BMatC= 6.43D-05 BMatP= 1.08D-03
 IDIUse=3 WtCom= 9.98D-01 WtEn= 1.90D-03
 Coeff-Com: -0.194D-02-0.120D-02 0.151D-01 0.679D-01 0.256D+00 0.664D+00
 Coeff-En:   0.000D+00 0.000D+00 0.000D+00 0.000D+00 0.000D+00 0.100D+01
 Coeff:     -0.194D-02-0.119D-02 0.151D-01 0.678D-01 0.256D+00 0.665D+00
 Gap=     0.211 Goal=   None    Shift=    0.000
 RMSDP=1.27D-05 MaxDP=1.13D-03 DE=-9.42D-04 OVMax= 1.95D-03

 Cycle   7  Pass 1  IDiag  1:
 RMSU=  1.04D-05    CP:  9.61D-01  1.14D+00  7.03D-01  7.35D-01  7.69D-01
                    CP:  8.30D-01
 E= -3504.83584903317     Delta-E=       -0.000055495106 Rises=F Damp=F
 DIIS: error= 1.05D-04 at cycle   7 NSaved=   7.
 NSaved= 7 IEnMin= 7 EnMin= -3504.83584903317     IErMin= 7 ErrMin= 1.05D-04
 ErrMax= 1.05D-04  0.00D+00 EMaxC= 1.00D-01 BMatC= 1.11D-05 BMatP= 6.43D-05
 IDIUse=3 WtCom= 9.99D-01 WtEn= 1.05D-03
 Coeff-Com:  0.468D-05-0.190D-02-0.399D-02-0.149D-02 0.551D-01 0.333D+00
 Coeff-Com:  0.619D+00
 Coeff-En:   0.000D+00 0.000D+00 0.000D+00 0.000D+00 0.000D+00 0.151D-01
 Coeff-En:   0.985D+00
 Coeff:      0.467D-05-0.190D-02-0.398D-02-0.149D-02 0.551D-01 0.333D+00
 Coeff:      0.619D+00
 Gap=     0.211 Goal=   None    Shift=    0.000
 RMSDP=4.95D-06 MaxDP=5.69D-04 DE=-5.55D-05 OVMax= 8.92D-04

 Cycle   8  Pass 1  IDiag  1:
 RMSU=  4.08D-06    CP:  9.61D-01  1.14D+00  7.04D-01  7.38D-01  7.80D-01
                    CP:  8.89D-01  8.53D-01
 E= -3504.83585993151     Delta-E=       -0.000010898340 Rises=F Damp=F
 DIIS: error= 3.23D-05 at cycle   8 NSaved=   8.
 NSaved= 8 IEnMin= 8 EnMin= -3504.83585993151     IErMin= 8 ErrMin= 3.23D-05
 ErrMax= 3.23D-05  0.00D+00 EMaxC= 1.00D-01 BMatC= 1.20D-06 BMatP= 1.11D-05
 IDIUse=1 WtCom= 1.00D+00 WtEn= 0.00D+00
[...]
 6,-0.00000330,0.00000286,-0.00000065,-0.00000573,-0.00000175,0.0000006
 1,-0.00000358,-0.00000675,-0.00001639,0.00000018,0.00000508,0.00000402
 ,-0.00000462,0.00000306,0.00000040,-0.00000075,-0.00000158,-0.00000002
 ,-0.00000051,-0.00000185,0.00000264,0.00000042,-0.00000332,-0.00000153
 ,-0.00000881,0.00001351,0.00000067,-0.00000122,-0.00000131,-0.00001850
 ,0.00005228,0.00004440,-0.00003761,0.00001257,0.00006017,0.00002914,-0
 .00001405,-0.00005485,-0.00008847,-0.00019543,-0.00007291,-0.00003623,
 -0.00007380,-0.00000407,-0.00003378,0.00002502,0.00004479,0.00014580,0
 .00011965,0.00005602,0.00004917,0.00004481,0.00002894,0.00004435,0.000
 02497,-0.00000295,0.00000086,0.00000311,-0.00000172,-0.00007268,0.0000
 9567,-0.00022052,-0.00002414,-0.00003022,0.00000134,-0.00001179,0.0000
 2410,-0.00000832,-0.00000284,0.00000175,-0.00000177,-0.00000187,0.0000
 1027,0.00000046,0.00000839,0.00001768,-0.00011202,-0.00002568,-0.00002
 361,0.00005926,0.00001394,-0.00001030,0.00003296,-0.00022810,-0.000039
 63,-0.00018938,0.00004306,0.00000808,0.00003922,0.00012197,0.00004638,
 0.00004833,0.00007140,-0.00002545,0.00010526,0.00000057,0.00000281,-0.
 00000061,0.00000354,-0.00000108,0.00000157,0.00002114,-0.00001046,0.00
 003325,0.00048620,-0.00044083,0.00032252,-0.00029282,-0.00039896,-0.00
 021827,0.00551168,-0.01765917,0.01070607,-0.00058757,0.00025245,-0.000
 01234,0.00122966,0.00075463,0.00048553,-0.00013371,-0.00057939,-0.0001
 9213,-0.00000234,0.00005007,-0.00003060,0.00017791,0.00031035,-0.00124
 422,0.00003938,-0.00036841,0.00032041,0.00002147,-0.00004813,0.0000663
 3,0.00000625,-0.00004695,-0.00012122,-0.00000520,0.00000203,-0.0000018
 0,0.00000472,0.,0.00000140,0.00000048,-0.00000118,0.00000243,-0.000002
 02,0.00000112,0.00000049,-0.00000046,0.00000038,-0.00000216,0.00000052
 ,-0.00000174,0.00000148,0.00000214,0.00000069,0.00000039,0.00000093,-0
 .00000076,-0.00000068,-0.00000004,-0.00000024,-0.00000074,0.00000015,-
 0.00000011,-0.00000069,-0.00000817,-0.00000076,-0.00001657,0.00000195,
 -0.00000006,0.00000281,0.00000036,0.00000125,0.00000449,0.00000516,-0.
 00000031,0.00000874,-0.00939640,0.04791559,-0.08870874,0.01308243,0.03
 170327,-0.00090702,0.02285383,-0.11493653,0.12247277,-0.00000532,-0.00
 000398,0.00000324,-0.00000343,-0.00000557,0.00000771,-0.00004176,-0.00
 001327,0.00000180,0.00002347,0.00000019,0.00000101,0.00000452,-0.00000
 260,0.00000237,0.00000278,-0.00000504,0.00000272,0.00000091,-0.0000038
 3,0.00000094,-0.00001168,0.00000809,-0.00000970,0.00002117,0.00002974,
 -0.00003106,-0.00002698,0.00001080,-0.00000426,-0.00000125,-0.00000271
 ,0.00000089,-0.00000124,-0.00000284,0.00000072,0.00002634,-0.00002320,
 0.00000924,-0.00000679,-0.00003505,0.00001225,-0.00000016,-0.00000175,
 0.00000052,-0.00003582,-0.00003470,-0.00000417,0.00000176,-0.00008675,
 -0.00009401,-0.00002311,0.00002680,0.00000622,0.00017979,0.00038623,0.
 00020029,0.00001639,0.00004344,0.00008558,0.00003072,-0.00002748,-0.00
 002769,0.00007916,-0.00006857,-0.00003018,-0.00001831,-0.00007865,-0.0
 0001577,-0.00003317,-0.00002543,0.00000332,-0.00000665,-0.00000344,-0.
 00000302,-0.00018280,0.00028063,-0.00016608,0.00002763,0.00001500,0.00
 000332,-0.00001417,0.00002695,-0.00000924,-0.00000290,-0.00000248,-0.0
 0000569,-0.00000211,-0.00000362,-0.00001189,0.00022018,0.00015663,0.00
 001166,-0.00009406,-0.00005888,0.00001742,-0.00008197,-0.00002762,-0.0
 0000862,0.00031127,0.00025469,-0.00012657,-0.00009952,-0.00012679,0.00
 009944,-0.00029010,-0.00012019,0.00010614,-0.00010579,-0.00006447,-0.0
 0003423,-0.00000596,-0.00000041,0.00000135,-0.00000569,-0.00000271,0.0
 0000148,-0.00021807,0.00058005,0.00117139,-0.00127384,-0.00092078,0.00
 118395,-0.00064445,-0.00108111,-0.00085198,0.01036545,0.00249410,0.003
 68745,0.00079695,-0.00053148,-0.00044450,-0.00045545,-0.00088267,0.000
 51893,0.00049299,0.00047155,0.00010071,0.00003924,-0.00006012,-0.00010
 309,-0.00031777,0.00059585,0.00020903,0.00012735,0.00039102,0.00017847
 ,0.00001974,0.00003969,-0.00003252,-0.00006113,0.00005659,-0.00002866,
 0.00000808,-0.00000250,0.00000118,-0.00000076,0.00000308,-0.00000125,-
 0.00000130,-0.00000097,0.00000124,0.00000001,-0.00000075,0.00000021,0.
 00000153,0.00000033,0.00000110,-0.00000314,0.00000205,-0.00000088,-0.0
 0000248,-0.00000235,0.00000152,0.00000162,0.00000015,-0.00000005,-0.00
 000031,-0.00000014,-0.00000004,-0.00000049,0.00000019,-0.00000038,0.00
 001420,0.00002041,-0.00001493,-0.00000880,-0.00000852,0.00000508,-0.00
 000279,-0.00000525,0.00000343,-0.00000203,-0.00000515,0.00000454,-0.11
 579088,-0.01209663,-0.08080936,-0.06417718,-0.02668254,-0.04714668,-0.
 00644806,0.01968660,-0.03296254,0.17766063,-0.00000355,-0.00000581,0.0
 0000362,0.00000435,0.00000994,-0.00000377,-0.00001595,-0.00001368,0.00
 000155,0.00000740,-0.00000722,0.00000284,-0.00000597,0.00000334,-0.000
 00082,0.00000406,0.00000276,-0.00000042,0.00000141,0.00000278,-0.00000
 201,0.00000014,0.00000155,-0.00000083,0.00002067,0.00001488,-0.0000055
 3,-0.00001008,0.00000874,-0.00000403,-0.00000075,-0.00000108,-0.000000
 13,0.00000009,-0.00000122,-0.00000007,-0.00000057,-0.00000584,0.000006
 59,-0.00000096,0.00000487,0.00000297,-0.00000086,-0.00000065,-0.000001
 07,-0.00004987,0.00006038,0.00009627,-0.00008099,-0.00004325,-0.000023
 90,0.00004283,-0.00001448,-0.00007020,-0.00001232,0.00002092,0.0000581
 2,-0.00007219,-0.00006214,0.00004144,-0.00003410,0.00002601,0.00004645
 ,0.00029881,0.00020228,-0.00004208,0.00004115,0.00003899,0.00000965,0.
 00004449,0.00002308,-0.00000910,-0.00000084,-0.00000335,0.00000016,0.0
 0001899,0.00019129,0.00000383,-0.00002585,-0.00002742,-0.00001013,-0.0
 0000572,0.00002882,0.00002048,-0.00000362,-0.00000456,-0.00000137,0.00
 000152,0.00000320,0.00000187,0.00005937,-0.00005853,-0.00005511,-0.000
 03699,0.00001605,0.00001485,-0.00002557,0.00002103,0.00000555,0.000129
 05,-0.00007327,-0.00002348,-0.00003709,0.00000977,0.00002554,-0.000112
 08,0.00002668,0.00005008,-0.00003313,0.00006437,0.00000293,-0.00000135
 ,-0.00000256,0.00000254,-0.00000462,0.00000150,-0.00000011,-0.00010430
 ,0.00050438,0.00085601,-0.00089011,-0.00039924,-0.00003154,-0.00108848
 ,-0.00179902,-0.00072276,-0.00860713,0.00333380,-0.02563952,0.00040217
 ,-0.00078996,0.00041433,0.00125432,0.00115476,-0.00034533,0.00015193,-
 0.00029358,-0.00043714,0.00010175,-0.00005427,-0.00005362,0.00123148,-
 0.00070928,0.00056196,-0.00040251,0.00052668,-0.00035721,-0.00005103,0
 .00009553,-0.00012585,0.00007267,-0.00015617,-0.00010145,0.00000622,-0
 .00000286,0.00000070,-0.00000419,0.00000178,0.00000056,-0.00000057,0.0
 0000193,0.00000031,0.00000182,-0.00000027,0.00000101,0.00000056,-0.000
 00165,-0.00000098,-0.00000119,0.00000217,-0.00000067,-0.00000256,-0.00
 000045,0.00000096,-0.00000059,-0.00000004,-0.00000095,-0.00000016,-0.0
 0000033,-0.00000044,-0.00000026,-0.00000038,-0.00000042,0.00000760,-0.
 00000625,-0.00000807,-0.00000245,0.00000055,0.00000154,-0.00000357,0.0
 0000396,0.00000333,-0.00000084,0.00000146,0.00000257,-0.01160689,-0.07
 996956,-0.03135107,-0.02693233,0.00224045,-0.01686486,0.02885636,-0.00
 867283,0.05341324,0.01752614,0.08456723,0.00000518,0.00000702,0.000002
 86,-0.00001120,-0.00000633,0.00001229,0.00000197,0.00000830,-0.0000060
 9,0.00000140,0.00000808,-0.00000716,0.00000927,-0.00000319,0.00000688,
 -0.00000499,-0.00000373,0.00000461,0.00000004,-0.00000717,-0.00000333,
 0.00000160,-0.00000420,-0.00000905,-0.00002787,0.00000815,0.00001137,0
 .00000271,-0.00000581,0.00000481,0.00000010,-0.00000165,-0.00000274,-0
 .00000006,-0.00000158,-0.00000277,0.00001220,-0.00000544,-0.00000446,-
 0.00000498,-0.00001720,0.00003152,0.00000070,-0.00000260,-0.00000236,-
 0.00003741,0.00015865,0.00014304,-0.00007143,0.00003756,0.00009960,0.0
 0007630,-0.00003625,-0.00015226,-0.00018165,-0.00040214,-0.00005112,-0
 .00013134,-0.00014736,0.00003769,-0.00008003,0.00006581,0.00011506,0.0
 0058953,0.00031747,0.00011739,0.00011245,0.00010643,0.00007790,0.00011
 693,0.00006580,-0.00000979,0.00000161,0.00000639,-0.00000343,-0.000234
 06,0.00053075,-0.00039022,-0.00005644,-0.00007044,0.00000545,-0.000037
 77,0.00005883,-0.00001316,-0.00000763,0.00000241,-0.00000492,-0.000004
 76,0.00002109,-0.00000041,0.00008370,0.00003851,-0.00027255,-0.0000917
 1,-0.00006091,0.00014535,0.00000580,-0.00001795,0.00007497,-0.00048785
 ,-0.00015953,-0.00041282,0.00008379,0.00003743,0.00007732,0.00030722,0
 .00013212,0.00009850,0.00014288,-0.00004727,0.00023960,-0.00000062,0.0
 0000527,-0.00000058,0.00000409,-0.00000236,0.00000337,0.00034182,0.000
 14696,-0.00038820,0.00098815,0.00114180,-0.00104194,-0.00227488,-0.001
 87433,0.00092155,-0.02172717,-0.01376592,-0.03933215,0.00050467,-0.000
 98762,0.00038219,0.00485941,0.00169789,-0.00362850,0.00004828,-0.00047
 232,-0.00061115,0.00012476,-0.00001233,-0.00018335,0.00096129,-0.00216
 846,0.00036978,-0.00046473,0.00068835,-0.00040079,-0.00001754,0.000115
 85,-0.00018731,0.00036828,-0.00045592,-0.00032706,-0.00000556,0.000002
 02,-0.00000272,0.00000744,0.00000165,0.00000258,0.00000031,-0.00000186
 ,0.00000503,-0.00000320,0.00000170,0.00000150,-0.00000028,0.00000031,-
 0.00000441,-0.00000031,-0.00000174,0.00000218,0.00000253,0.00000043,0.
 00000158,0.00000216,-0.00000140,-0.00000178,-0.00000013,-0.00000071,-0
 .00000148,-0.00000006,-0.00000031,-0.00000160,-0.00000688,0.00000138,-
 0.00003669,-0.00000035,-0.00000229,0.00000703,-0.00000166,0.00000265,0
 .00001041,0.00000810,-0.00000124,0.00001740,-0.07661648,-0.03141872,-0
 .24890185,-0.03020905,-0.01050219,0.00592058,-0.03232980,0.03655142,-0
 .04281584,0.15534352,0.02064605,0.33032471,-0.00006252,-0.00007339,0.0
 0001546,-0.00011245,0.00005342,0.00000699,0.00000954,-0.00021325,0.000
 15632,0.00011192,0.00000522,-0.00000989,0.00005352,-0.00001036,0.00000
 231,0.00002815,-0.00004065,0.00002410,0.00000554,-0.00000731,0.0000012
 2,0.00000335,0.00000441,0.00000836,-0.00042750,0.00028307,-0.00046175,
 -0.00002316,0.00003813,0.00010525,-0.00000607,-0.00000755,0.00000473,0
 .00000234,-0.00000044,0.00000423,0.00031274,-0.00020036,0.00001406,-0.
 00007189,-0.00104982,-0.00089805,-0.00000468,-0.00002558,0.00000436,-0
 .00030145,-0.00019120,0.00024683,-0.00173217,-0.00062326,-0.00077274,0
 .00024709,-0.00015118,-0.00006503,-0.00000133,0.00065438,0.00001651,-0
 .00010196,-0.00022534,-0.00014408,-0.00000291,0.00008133,0.00005161,-0
 .00018516,0.00008030,0.00032293,-0.00003410,0.00010120,0.00006725,0.00
 008764,-0.00000769,-0.00005545,-0.00000250,0.00001264,0.00001204,0.000
 00378,0.00000595,0.00005797,-0.00008133,-0.00008039,-0.00001622,0.0000
 0195,0.00000034,-0.00000221,0.00000239,-0.00000204,0.00000107,0.000001
 34,-0.00000086,-0.00000219,0.00317387,-0.00536454,0.00411879,-0.000352
 95,0.00017227,-0.00016590,-0.00180134,-0.00166439,-0.00072301,-0.00073
 192,0.01193850,-0.00227305,0.00109875,0.00035227,-0.00077725,-0.002059
 95,0.00344467,-0.00292200,-0.01002467,-0.00837622,-0.01000158,0.000009
 46,-0.00001553,-0.00002967,-0.00003987,0.00001308,-0.00000049,0.000113
 33,-0.00006322,-0.00002848,-0.00009833,-0.00006712,-0.00011388,0.00002
 677,0.00004687,0.00004976,-0.00001114,-0.00002208,0.00001650,0.0000271
 8,-0.00002169,0.00007192,0.00001105,0.00001865,0.00000636,0.00001023,-
 0.00005453,-0.00000517,0.00000054,0.00002898,-0.00009386,0.00001538,-0
 .00000872,-0.00001446,-0.00000147,0.00000180,-0.00000194,-0.00000518,0
 .00000216,-0.00000587,0.00000247,0.00000543,-0.00000390,0.00003662,-0.
 00001266,0.00000357,-0.00004402,-0.00000012,0.00001615,0.00000037,0.00
 001432,-0.00000425,0.00001689,0.00000378,0.00000263,-0.00000329,-0.000
 01050,-0.00001449,-0.00000476,0.00001595,-0.00000694,-0.00001803,-0.00
 000271,0.00000339,-0.00000963,0.00000014,-0.00000419,-0.00000157,0.000
 00009,-0.00000129,0.00000065,-0.00000096,-0.00000106,0.00002336,-0.000
 03144,-0.00001488,-0.00000235,0.00000816,0.00000057,-0.00001220,0.0000
 1437,0.00000746,-0.00000338,0.00000879,0.00000563,-0.00009787,0.000059
 26,-0.00000552,0.00003947,-0.00000286,-0.00000992,0.00002530,-0.000033
 79,0.00000285,0.00003578,-0.00001316,0.00000966,0.01293635,0.00000030,
 0.00005296,-0.00004298,0.00002800,0.00004728,-0.00000994,0.00005893,0.
 00015988,0.00026593,-0.00018832,0.00016915,-0.00009618,0.00007053,-0.0
 0015644,0.00003589,-0.00011720,0.00002295,-0.00001596,-0.00000271,0.00
 000631,-0.00000598,0.00003004,-0.00002282,0.00001764,-0.00054337,-0.00
 006120,-0.00035230,0.00019443,-0.00018528,0.00022951,0.00000395,0.0000
 0878,-0.00000656,-0.00000006,0.00001249,-0.00000119,0.00012716,-0.0000
 5578,-0.00054692,-0.00026049,0.00022289,-0.00083572,0.00001403,0.00003
 932,0.00004747,-0.00028712,-0.00101236,-0.00064374,-0.00088107,0.00224
 071,-0.00026278,-0.00021935,0.00025712,0.00032036,0.00046791,0.0005934
 3,0.00010316,0.00020461,0.00022209,0.00008722,-0.00011798,-0.00021579,
 -0.00004706,0.00002279,-0.00027596,-0.00008804,0.00009572,0.00002454,-
 0.00003913,-0.00018411,0.00001945,0.00010187,0.00000685,-0.00001597,-0
 .00000354,-0.00006804,0.00003926,0.00000798,0.00003786,0.00012373,0.00
 009328,-0.00002883,-0.00000133,0.00001289,-0.00000659,0.00002088,0.000
 01383,-0.00000382,0.00001051,0.00001058,-0.00906141,-0.03337488,-0.005
 66772,0.00017191,0.00353910,0.00267166,0.00171424,-0.00120278,0.001379
 08,0.00964849,-0.02060258,0.01588460,-0.00058153,0.00178844,-0.0015033
 3,-0.00130670,-0.00149607,-0.00173615,-0.00031068,-0.12921728,0.024752
 58,-0.00004184,-0.00010419,0.00003688,0.00006045,0.00008787,-0.0000466
 9,0.00014717,0.00007898,0.00000999,-0.00006076,-0.00009028,0.00008185,
 0.00004649,0.00014389,0.00006045,0.00001903,-0.00004259,-0.00001082,0.
 00000054,-0.00009928,-0.00000169,-0.00000063,-0.00004325,-0.00002504,0
 .00002348,-0.00000120,0.00002099,-0.00001186,0.00008342,-0.00002793,-0
 .00004617,-0.00004506,0.00001038,-0.00000882,-0.00000338,-0.00000851,-
 0.00001249,-0.00000618,-0.00002584,-0.00000791,0.00000223,-0.00000666,
 -0.00013997,0.00005476,-0.00002819,0.00005598,-0.00004782,0.00002067,0
 .00002201,-0.00002438,0.00001689,-0.00002814,0.00001637,-0.00000930,-0
 .00003930,0.00004370,-0.00002235,0.00002510,-0.00002130,0.00000939,0.0
 0004361,0.00001066,-0.00000825,0.00001142,-0.00000413,0.00000606,0.000
 00538,-0.00000096,0.00000051,0.00000539,0.00000224,0.,-0.00012765,-0.0
 0006447,0.00002282,0.00005025,0.00003055,-0.00001520,0.00003305,0.0000
 1716,-0.00000722,0.00004017,0.00001731,0.00000324,0.00002875,0.0001580
 7,-0.00011552,-0.00002216,-0.00003278,0.00002319,-0.00001189,-0.000081
 20,0.00002880,0.00000599,-0.00003670,0.00005599,0.00120697,0.17827718,
 -0.00000071,0.00000166,-0.00000444,-0.00001637,-0.00003368,0.00001275,
 -0.00002253,0.00000891,0.00006911,-0.00004655,0.00003456,-0.00004491,0
 .00005669,-0.00004908,0.00001193,-0.00003510,-0.00002910,0.00001670,0.
 00000462,-0.00000465,0.00000332,-0.00000070,0.00000299,-0.00000368,-0.
 00023210,0.00007266,0.00010801,-0.00006575,-0.00008301,0.00014912,-0.0
 0000457,-0.00000438,0.00000409,0.00000096,-0.00000270,0.00000199,0.000
 41707,-0.00027706,-0.00012005,-0.00096193,-0.00102969,-0.00056203,0.00
 000452,-0.00002187,0.00004076,0.00008177,0.00007559,-0.00019314,0.0002
 4277,-0.00088336,0.00031499,-0.00002992,0.00006128,-0.00003921,-0.0001
 3904,0.00003766,0.00008003,0.00001277,0.00002601,0.00002751,0.00002359
 ,-0.00001827,-0.00001742,-0.00000331,-0.00003681,-0.00009907,0.0000007
 5,-0.00002956,-0.00002072,-0.00001108,-0.00000292,-0.00000392,-0.00000
 009,0.00000670,0.00001613,0.00000622,-0.00000114,0.00000047,0.00001910
 ,0.00001022,-0.00000872,0.00000837,-0.00000263,-0.00000113,0.00000155,
 -0.00000479,-0.00000152,0.00000345,-0.00000397,-0.00000061,0.00059247,
 -0.00873935,0.00580315,0.00024350,-0.00067150,-0.00174111,-0.00132014,
 -0.00192782,-0.00109735,0.00178701,0.01545648,-0.00340788,-0.00115133,
 0.00150643,-0.00293348,-0.00309592,0.00325902,-0.00357123,-0.01055352,
 0.02751068,-0.02067407,-0.00003218,-0.00000335,-0.00003447,-0.00001592
 ,-0.00001476,-0.00000118,0.00001859,-0.00003046,0.00004447,0.00000504,
 0.00000756,-0.00005689,0.00000973,0.00000905,0.00001928,0.00000004,0.0
 0000018,-0.00001418,-0.00002372,-0.00001369,0.00005300,0.00001538,0.00
 001518,0.00000035,0.00001191,-0.00001979,-0.00000470,-0.00001140,0.000
 01574,-0.00006688,0.00001064,0.00000220,-0.00000987,0.00000333,0.00000
 021,0.00000248,-0.00000782,-0.00000483,-0.00000321,0.00000312,0.000002
 42,0.00000023,0.00004475,-0.00001435,0.00001060,-0.00004159,0.00000044
 ,-0.00000174,-0.00000234,0.00001297,-0.00001137,0.00001621,-0.00000450
 ,-0.00000153,0.00000198,-0.00001300,0.00000740,-0.00000782,0.00001411,
 -0.00000748,-0.00001760,-0.00000558,0.00000191,-0.00000873,0.00000296,
 0.00000060,-0.00000180,0.00000127,0.00000090,-0.00000063,0.00000010,0.
 00000136,0.00004356,0.00001464,0.00001933,-0.00001347,-0.00000577,-0.0
 0000115,-0.00000889,-0.00000532,-0.00000491,-0.00001726,-0.00000407,-0
 .00001333,-0.00001243,0.00000380,0.00011510,0.00001465,0.00000102,-0.0
 0002458,0.00000868,0.00000520,-0.00002278,-0.00001236,-0.00000389,-0.0
 0006009,0.01421184,-0.03417923,0.02794897\\0.00000846,0.00000564,-0.00
 000432,0.00000576,-0.00000884,0.00000145,-0.00000731,0.00000613,-0.000
 00904,-0.00000342,0.00000319,-0.00000153,0.00000985,-0.00000529,0.0000
 0199,-0.00000618,0.00000027,-0.00000097,0.00000143,0.00000029,-0.00000
 070,0.00000166,0.00000421,-0.00000452,0.00001516,-0.00001968,0.0000085
 3,0.00000087,-0.00000758,0.00000245,0.00000130,-0.00000054,-0.00000026
 ,0.00000250,-0.00000106,-0.00000202,0.00000800,0.00000466,-0.00000440,
 -0.00001878,0.00000624,0.00000288,0.00000236,-0.00000172,-0.00000209,-
 0.00000441,-0.00001152,-0.00000250,0.00000784,0.00000846,0.00000072,-0
 .00000129,0.00000495,0.00000642,-0.00000163,0.00000104,-0.00000006,-0.
 00000049,0.00000412,0.00000149,0.00000241,-0.00000205,-0.00000026,0.00
 000183,-0.00000118,-0.00000394,-0.00000118,-0.00000151,-0.00000327,-0.
 00000345,0.00000119,0.00000061,-0.00000211,0.00000120,0.00000131,-0.00
 000187,0.00000162,0.00000111,0.00000264,0.00000423,-0.00000116,-0.0000
 0056,0.00000348,-0.00000126,0.00000049,0.00000182,-0.00000121,0.000000
 62,0.00000242,-0.00000127,0.00000489,0.00004185,0.00004812,0.00001557,
 0.00000119,-0.00002341,-0.00001337,-0.00000823,-0.00000760,-0.00000538
 ,0.00000634,0.00001959,-0.00000058,-0.00000561,-0.00000658,0.00000075,
 -0.00000935,-0.00001148,0.00000141,-0.00002452,-0.00002946,-0.00000538
 ,0.00000123,0.00000258,0.00000189,-0.00000957,0.00000401,0.00000287,0.
 00000456,0.00000216,-0.00000050,-0.00000037,-0.00000096,-0.00000343,0.
 00000330,0.00000166,-0.00000362,-0.00000023,-0.00000103,-0.00000014,-0
 .00000150,-0.00000057,-0.00000031,0.00000048,-0.00000172,-0.00000055,0
 .00000152,0.00000063,-0.00000090,0.00000006,0.00000016,-0.00000268,0.0
 0000238,0.00000110,-0.00000226,0.00000188,0.00000036,-0.00000122,0.000
 00067,0.00000073,-0.00000197,0.00000143,0.00000046,0.00000336,0.000010
 49,-0.00000423,-0.00000031,-0.00000935,0.00000382,0.00000371,-0.000002
 98,0.00000397,-0.00000280,-0.00000258,0.00000234,-0.00000043,-0.000000
 66,0.00000079,-0.00000101,-0.00000593,0.00000202,-0.00000069,-0.000000
 83,0.00000114,-0.00000069,-0.00000229,0.00000207,0.00000096,-0.0000023
 3,0.00000074,-0.00000031,-0.00000211,0.00000218,-0.00000287,-0.0000033
 4,-0.00000518,-0.00000062,-0.00000706,0.00000330,0.00000072,0.00000220
 ,0.00000610,0.00000122,-0.00000425,-0.00000037,0.00000306,0.00000391,0
 .00000224,0.00000116,0.00000367,-0.00000264,-0.00000454,0.00000300,-0.
 00000356,-0.00000112,0.00000066,0.00000278,-0.00000438,0.00000810,-0.0
 0000048\\\@
 The archive entry for this job was punched.


 ALMOST ANYTHING IS EASIER TO GET INTO THAN OUT OF.

                         -- AGNES ALLEN'S LAW FROM
                PAUL DICKSON'S "THE OFFICIAL RULES"
 Job cpu time:       1 days  2 hours 19 minutes 21.7 seconds.
 Elapsed time:       0 days  0 hours 50 minutes  1.1 seconds.
 File lengths (MBytes):  RWF=   6711 Int=      0 D2E=      0 Chk=     88 Scr=      1
 Normal termination of Gaussian 16 at Thu May 15 12:01:36 2025.
