 Entering Gaussian System, Link 0=/cm/shared/apps/spack/cpu/opt/spack/linux-centos8-zen/gcc-8.3.1/gaussian-16.C.01-po5bqktfeugvmjyga3v7eigbecnokxng/g16/g16
 Initial command:
 /cm/shared/apps/spack/cpu/opt/spack/linux-centos8-zen/gcc-8.3.1/gaussian-16.C.01-po5bqktfeugvmjyga3v7eigbecnokxng/g16/l1.exe "/scratch/bim12/job_39385191/Gau-3902488.inp" -scrdir="/scratch/bim12/job_39385191/"
 Entering Link 1 = /cm/shared/apps/spack/cpu/opt/spack/linux-centos8-zen/gcc-8.3.1/gaussian-16.C.01-po5bqktfeugvmjyga3v7eigbecnokxng/g16/l1.exe PID=   3902496.
  
 Copyright (c) 1988-2019, Gaussian, Inc.  All Rights Reserved.
  
 This is part of the Gaussian(R) 16 program.  It is based on
 the Gaussian(R) 09 system (copyright 2009, Gaussian, Inc.),
 the Gaussian(R) 03 system (copyright 2003, Gaussian, Inc.),
 the Gaussian(R) 98 system (copyright 1998, Gaussian, Inc.),
 the Gaussian(R) 94 system (copyright 1995, Gaussian, Inc.),
 the Gaussian 92(TM) system (copyright 1992, Gaussian, Inc.),
 the Gaussian 90(TM) system (copyright 1990, Gaussian, Inc.),
 the Gaussian 88(TM) system (copyright 1988, Gaussian, Inc.),
 the Gaussian 86(TM) system (copyright 1986, Carnegie Mellon
 University), and the Gaussian 82(TM) system (copyright 1983,
 Carnegie Mellon University). Gaussian is a federally registered
 trademark of Gaussian, Inc.
  
 This software contains proprietary and confidential information,
 including trade secrets, belonging to Gaussian, Inc.
  
 This software is provided under written license and may be
 used, copied, transmitted, or stored only in accord with that
 written license.
  
 The following legend is applicable only to US Government
 contracts under FAR:
  
                    RESTRICTED RIGHTS LEGEND
  
 Use, reproduction and disclosure by the US Government is
 subject to restrictions as set forth in subparagraphs (a)
 and (c) of the Commercial Computer Software - Restricted
 Rights clause in FAR 52.227-19.
  
 Gaussian, Inc.
 340 Quinnipiac St., Bldg. 40, Wallingford CT 06492
  
  
 ---------------------------------------------------------------
 Warning -- This program may not be used in any manner that
 competes with the business of Gaussian, Inc. or will provide
 assistance to any competitor of Gaussian, Inc.  The licensee
 of this program is prohibited from giving any competitor of
 Gaussian, Inc. access to this program.  By using this program,
 the user acknowledges that Gaussian, Inc. is engaged in the
 business of creating and licensing software in the field of
 computational chemistry and represents and warrants to the
 licensee that it is not a competitor of Gaussian, Inc. and that
 it will not use this program in any manner prohibited above.
 ---------------------------------------------------------------
  

 Cite this work as:
 Gaussian 16, Revision C.01,
 M. J. Frisch, G. W. Trucks, H. B. Schlegel, G. E. Scuseria, 
 M. A. Robb, J. R. Cheeseman, G. Scalmani, V. Barone, 
 G. A. Petersson, H. Nakatsuji, X. Li, M. Caricato, A. V. Marenich, 
 J. Bloino, B. G. Janesko, R. Gomperts, B. Mennucci, H. P. Hratchian, 
 J. V. Ortiz, A. F. Izmaylov, J. L. Sonnenberg, D. Williams-Young, 
 F. Ding, F. Lipparini, F. Egidi, J. Goings, B. Peng, A. Petrone, 
 T. Henderson, D. Ranasinghe, V. G. Zakrzewski, J. Gao, N. Rega, 
 G. Zheng, W. Liang, M. Hada, M. Ehara, K. Toyota, R. Fukuda, 
 J. Hasegawa, M. Ishida, T. Nakajima, Y. Honda, O. Kitao, H. Nakai, 
 T. Vreven, K. Throssell, J. A. Montgomery, Jr., J. E. Peralta, 
 F. Ogliaro, M. J. Bearpark, J. J. Heyd, E. N. Brothers, K. N. Kudin, 
 V. N. Staroverov, T. A. Keith, R. Kobayashi, J. Normand, 
 K. Raghavachari, A. P. Rendell, J. C. Burant, S. S. Iyengar, 
 J. Tomasi, M. Cossi, J. M. Millam, M. Klene, C. Adamo, R. Cammi, 
 J. W. Ochterski, R. L. Martin, K. Morokuma, O. Farkas, 
 J. B. Foresman, and D. J. Fox, Gaussian, Inc., Wallingford CT, 2019.
 
 ******************************************
 Gaussian 16:  ES64L-G16RevC.01  3-Jul-2019
                15-May-2025 
 ******************************************
 %nprocshared=32
 Will use up to   32 processors via shared memory.
 %mem=62GB
 ----------------------------------------------------------------------
 #p m062x genecp opt freq nosymm scrf=(smd,solvent=propylethanoate) emp
 iricaldispersion=gd3 scf=(xqc,maxcycles=128)
 ----------------------------------------------------------------------
 1/18=20,19=15,26=3,38=1/1,3;
 2/9=110,12=2,15=1,17=6,18=5,40=1/2;
 3/5=7,11=2,16=1,17=8,25=1,30=1,70=32201,71=1,72=169,74=-55,124=31/1,2,3;
 4//1;
 5/5=2,7=128,8=3,13=1,38=5,53=169/2,8;
 6/7=2,8=2,9=2,10=2,28=1/1;
 7/30=1/1,2,3,16;
 1/18=20,19=15,26=3/3(2);
 2/9=110,15=1/2;
 99//99;
 2/9=110,15=1/2;
 3/5=7,6=1,11=2,16=1,17=8,25=1,30=1,70=32205,71=1,72=169,74=-55,82=7,124=31/1,2,3;
 4/5=5,16=3,69=1/1;
 5/5=2,7=128,8=3,13=1,38=5,53=169/2,8;
 7/30=1/1,2,3,16;
 1/18=20,19=15,26=3/3(-5);
 2/9=110,15=1/2;
 6/7=2,8=2,9=2,10=2,19=2,28=1/1;
 99/9=1/99;
 Leave Link    1 at Thu May 15 10:10:24 2025, MaxMem=  8321499136 cpu:               0.7 elap:               0.0
 (Enter /cm/shared/apps/spack/cpu/opt/spack/linux-centos8-zen/gcc-8.3.1/gaussian-16.C.01-po5bqktfeugvmjyga3v7eigbecnokxng/g16/l101.exe)
 -------------------
 Title Card Required
 -------------------
 Symbolic Z-matrix:
 Charge =  0 Multiplicity = 1
 C                    -2.55508   6.38283  -1.48115 
 C                    -2.58132   5.18442  -0.81158 
 C                    -1.36964   4.53297  -0.43953 
 C                    -0.12903   5.13798  -0.80478 
 C                    -0.13742   6.38472  -1.48962 
 C                    -1.32171   6.99593  -1.81633 
 H                    -3.49192   6.86579  -1.76272 
 H                    -3.53809   4.72053  -0.5709 
 C                    -1.35868   3.28403   0.2628 
 C                     1.09429   4.48185  -0.50366 
 H                     0.81925   6.83838  -1.75558 
 H                    -1.31896   7.95031  -2.3451 
 C                     1.09684   3.26196   0.11908 
 C                    -0.13505   2.68006   0.49973 
 H                     2.03348   4.95637  -0.79302 
 C                    -2.64864   2.63925   0.65994 
 C                    -3.04897   1.4312    0.11554 
 C                    -3.48762   3.24936   1.64764 
 C                    -4.26731   0.80095   0.46006 
 C                    -4.72983   2.6308    1.98287 
 C                    -3.11367   4.44303   2.32971 
 C                    -5.10075   1.40774   1.36279 
 C                    -5.57108   3.24113   2.9541 
 C                    -3.94409   5.00129   3.27012 
 H                    -2.15374   4.91088   2.1093 
 H                    -6.05359   0.94758   1.6303 
 C                    -5.19033   4.40115   3.58052 
 H                    -6.52122   2.76055   3.19476 
 H                    -3.64024   5.9125    3.78744 
 H                    -5.84014   4.86051   4.32697 
 S                    -0.05838   1.08979   1.24988 
 O                    -0.92061   1.03242   2.37985 
 O                     1.29513   0.68069   1.39919 
 S                    -1.96651   0.56003  -0.97288 
 O                    -1.48463   1.44408  -1.97151 
 O                    -2.55153  -0.68428  -1.33666 
 N                    -0.68629   0.13914   0.018 
 H                    -4.52474  -0.15063  -0.00396 
 H                     2.02413   2.73234   0.33445 
 I                    -0.70588  -1.82981   0.51172 
 
 ITRead=  0  0  0  0  0  0  0  0  0  0  0  0  0  0  0  0  0  0  0  0
 ITRead=  0  0  0  0  0  0  0  0  0  0  0  0  0  0  0  0  0  0  0  0
 MicOpt= -1 -1 -1 -1 -1 -1 -1 -1 -1 -1 -1 -1 -1 -1 -1 -1 -1 -1 -1 -1
 MicOpt= -1 -1 -1 -1 -1 -1 -1 -1 -1 -1 -1 -1 -1 -1 -1 -1 -1 -1 -1 -1
 NAtoms=     40 NQM=       40 NQMF=       0 NMMI=      0 NMMIF=      0
                NMic=       0 NMicF=      0.
                    Isotopes and Nuclear Properties:
 (Nuclear quadrupole moments (NQMom) in fm**2, nuclear magnetic moments (NMagM)
  in nuclear magnetons)

  Atom         1           2           3           4           5           6           7           8           9          10
 IAtWgt=          12          12          12          12          12          12           1           1          12          12
 AtmWgt=  12.0000000  12.0000000  12.0000000  12.0000000  12.0000000  12.0000000   1.0078250   1.0078250  12.0000000  12.0000000
 NucSpn=           0           0           0           0           0           0           1           1           0           0
 AtZEff=  -0.0000000  -0.0000000  -0.0000000  -0.0000000  -0.0000000  -0.0000000  -0.0000000  -0.0000000  -0.0000000  -0.0000000
 NQMom=    0.0000000   0.0000000   0.0000000   0.0000000   0.0000000   0.0000000   0.0000000   0.0000000   0.0000000   0.0000000
 NMagM=    0.0000000   0.0000000   0.0000000   0.0000000   0.0000000   0.0000000   2.7928460   2.7928460   0.0000000   0.0000000
 AtZNuc=   6.0000000   6.0000000   6.0000000   6.0000000   6.0000000   6.0000000   1.0000000   1.0000000   6.0000000   6.0000000

  Atom        11          12          13          14          15          16          17          18          19          20
 IAtWgt=           1           1          12          12           1          12          12          12          12          12
 AtmWgt=   1.0078250   1.0078250  12.0000000  12.0000000   1.0078250  12.0000000  12.0000000  12.0000000  12.0000000  12.0000000
 NucSpn=           1           1           0           0           1           0           0           0           0           0
 AtZEff=  -0.0000000  -0.0000000  -0.0000000  -0.0000000  -0.0000000  -0.0000000  -0.0000000  -0.0000000  -0.0000000  -0.0000000
 NQMom=    0.0000000   0.0000000   0.0000000   0.0000000   0.0000000   0.0000000   0.0000000   0.0000000   0.0000000   0.0000000
 NMagM=    2.7928460   2.7928460   0.0000000   0.0000000   2.7928460   0.0000000   0.0000000   0.0000000   0.0000000   0.0000000
 AtZNuc=   1.0000000   1.0000000   6.0000000   6.0000000   1.0000000   6.0000000   6.0000000   6.0000000   6.0000000   6.0000000

  Atom        21          22          23          24          25          26          27          28          29          30
 IAtWgt=          12          12          12          12           1           1          12           1           1           1
 AtmWgt=  12.0000000  12.0000000  12.0000000  12.0000000   1.0078250   1.0078250  12.0000000   1.0078250   1.0078250   1.0078250
 NucSpn=           0           0           0           0           1           1           0           1           1           1
 AtZEff=  -0.0000000  -0.0000000  -0.0000000  -0.0000000  -0.0000000  -0.0000000  -0.0000000  -0.0000000  -0.0000000  -0.0000000
 NQMom=    0.0000000   0.0000000   0.0000000   0.0000000   0.0000000   0.0000000   0.0000000   0.0000000   0.0000000   0.0000000
 NMagM=    0.0000000   0.0000000   0.0000000   0.0000000   2.7928460   2.7928460   0.0000000   2.7928460   2.7928460   2.7928460
 AtZNuc=   6.0000000   6.0000000   6.0000000   6.0000000   1.0000000   1.0000000   6.0000000   1.0000000   1.0000000   1.0000000

  Atom        31          32          33          34          35          36          37          38          39          40
 IAtWgt=          32          16          16          32          16          16          14           1           1         127
 AtmWgt=  31.9720718  15.9949146  15.9949146  31.9720718  15.9949146  15.9949146  14.0030740   1.0078250   1.0078250 126.9004000
 NucSpn=           0           0           0           0           0           0           2           1           1           5
 AtZEff=  -0.0000000  -0.0000000  -0.0000000  -0.0000000  -0.0000000  -0.0000000  -0.0000000  -0.0000000  -0.0000000  -0.0000000
 NQMom=    0.0000000   0.0000000   0.0000000   0.0000000   0.0000000   0.0000000   2.0440000   0.0000000   0.0000000 -71.0000000
 NMagM=    0.0000000   0.0000000   0.0000000   0.0000000   0.0000000   0.0000000   0.4037610   2.7928460   2.7928460   2.8132800
 AtZNuc=  16.0000000   8.0000000   8.0000000  16.0000000   8.0000000   8.0000000   7.0000000   1.0000000   1.0000000  53.0000000
 Leave Link  101 at Thu May 15 10:10:24 2025, MaxMem=  8321499136 cpu:               4.2 elap:               0.1
 (Enter /cm/shared/apps/spack/cpu/opt/spack/linux-centos8-zen/gcc-8.3.1/gaussian-16.C.01-po5bqktfeugvmjyga3v7eigbecnokxng/g16/l103.exe)

 GradGradGradGradGradGradGradGradGradGradGradGradGradGradGradGradGradGrad
 Berny optimization.
 Initialization pass.
                           ----------------------------
                           !    Initial Parameters    !
                           ! (Angstroms and Degrees)  !
 --------------------------                            --------------------------
 ! Name  Definition              Value          Derivative Info.                !
 --------------------------------------------------------------------------------
 ! R1    R(1,2)                  1.373          estimate D2E/DX2                !
 ! R2    R(1,6)                  1.4175         estimate D2E/DX2                !
 ! R3    R(1,7)                  1.091          estimate D2E/DX2                !
 ! R4    R(2,3)                  1.4251         estimate D2E/DX2                !
 ! R5    R(2,8)                  1.0902         estimate D2E/DX2                !
 ! R6    R(3,4)                  1.4278         estimate D2E/DX2                !
 ! R7    R(3,9)                  1.4329         estimate D2E/DX2                !
 ! R8    R(4,5)                  1.4225         estimate D2E/DX2                !
 ! R9    R(4,10)                 1.4205         estimate D2E/DX2                !
 ! R10   R(5,6)                  1.3722         estimate D2E/DX2                !
 ! R11   R(5,11)                 1.0917         estimate D2E/DX2                !
 ! R12   R(6,12)                 1.0911         estimate D2E/DX2                !
 ! R13   R(9,14)                 1.385          estimate D2E/DX2                !
 ! R14   R(9,16)                 1.4958         estimate D2E/DX2                !
 ! R15   R(10,13)                1.3696         estimate D2E/DX2                !
 ! R16   R(10,15)                1.0913         estimate D2E/DX2                !
 ! R17   R(13,14)                1.4146         estimate D2E/DX2                !
 ! R18   R(13,39)                1.0894         estimate D2E/DX2                !
 ! R19   R(14,31)                1.76           estimate D2E/DX2                !
 ! R20   R(16,17)                1.3842         estimate D2E/DX2                !
 ! R21   R(16,18)                1.4324         estimate D2E/DX2                !
 ! R22   R(17,19)                1.4143         estimate D2E/DX2                !
 ! R23   R(17,34)                1.765          estimate D2E/DX2                !
 ! R24   R(18,20)                1.4276         estimate D2E/DX2                !
 ! R25   R(18,21)                1.4247         estimate D2E/DX2                !
 ! R26   R(19,22)                1.3703         estimate D2E/DX2                !
 ! R27   R(19,38)                1.0895         estimate D2E/DX2                !
 ! R28   R(20,22)                1.4205         estimate D2E/DX2                !
 ! R29   R(20,23)                1.4225         estimate D2E/DX2                !
 ! R30   R(21,24)                1.3732         estimate D2E/DX2                !
 ! R31   R(21,25)                1.0904         estimate D2E/DX2                !
 ! R32   R(22,26)                1.0914         estimate D2E/DX2                !
 ! R33   R(23,27)                1.3722         estimate D2E/DX2                !
 ! R34   R(23,28)                1.0916         estimate D2E/DX2                !
 ! R35   R(24,27)                1.4176         estimate D2E/DX2                !
 ! R36   R(24,29)                1.091          estimate D2E/DX2                !
 ! R37   R(27,30)                1.0911         estimate D2E/DX2                !
 ! R38   R(31,32)                1.4225         estimate D2E/DX2                !
 ! R39   R(31,33)                1.4218         estimate D2E/DX2                !
 ! R40   R(31,37)                1.678          estimate D2E/DX2                !
 ! R41   R(34,35)                1.4181         estimate D2E/DX2                !
 ! R42   R(34,36)                1.4223         estimate D2E/DX2                !
 ! R43   R(34,37)                1.6727         estimate D2E/DX2                !
 ! R44   R(37,40)                2.03           estimate D2E/DX2                !
 ! A1    A(2,1,6)              120.6261         estimate D2E/DX2                !
 ! A2    A(2,1,7)              119.7258         estimate D2E/DX2                !
 ! A3    A(6,1,7)              119.6473         estimate D2E/DX2                !
 ! A4    A(1,2,3)              120.6672         estimate D2E/DX2                !
 ! A5    A(1,2,8)              119.724          estimate D2E/DX2                !
 ! A6    A(3,2,8)              119.6057         estimate D2E/DX2                !
 ! A7    A(2,3,4)              118.5735         estimate D2E/DX2                !
 ! A8    A(2,3,9)              122.2012         estimate D2E/DX2                !
 ! A9    A(4,3,9)              119.214          estimate D2E/DX2                !
 ! A10   A(3,4,5)              119.3032         estimate D2E/DX2                !
 ! A11   A(3,4,10)             119.8912         estimate D2E/DX2                !
 ! A12   A(5,4,10)             120.7963         estimate D2E/DX2                !
 ! A13   A(4,5,6)              120.6718         estimate D2E/DX2                !
 ! A14   A(4,5,11)             118.4478         estimate D2E/DX2                !
 ! A15   A(6,5,11)             120.8786         estimate D2E/DX2                !
 ! A16   A(1,6,5)              120.1318         estimate D2E/DX2                !
 ! A17   A(1,6,12)             119.6765         estimate D2E/DX2                !
 ! A18   A(5,6,12)             120.1881         estimate D2E/DX2                !
 ! A19   A(3,9,14)             118.0802         estimate D2E/DX2                !
 ! A20   A(3,9,16)             119.9502         estimate D2E/DX2                !
 ! A21   A(14,9,16)            121.9049         estimate D2E/DX2                !
 ! A22   A(4,10,13)            120.624          estimate D2E/DX2                !
 ! A23   A(4,10,15)            118.9537         estimate D2E/DX2                !
 ! A24   A(13,10,15)           120.4126         estimate D2E/DX2                !
 ! A25   A(10,13,14)           119.1498         estimate D2E/DX2                !
 ! A26   A(10,13,39)           121.6339         estimate D2E/DX2                !
 ! A27   A(14,13,39)           119.2149         estimate D2E/DX2                !
 ! A28   A(9,14,13)            122.9546         estimate D2E/DX2                !
 ! A29   A(9,14,31)            120.3605         estimate D2E/DX2                !
 ! A30   A(13,14,31)           116.6434         estimate D2E/DX2                !
 ! A31   A(9,16,17)            121.412          estimate D2E/DX2                !
 ! A32   A(9,16,18)            120.3046         estimate D2E/DX2                !
 ! A33   A(17,16,18)           118.2642         estimate D2E/DX2                !
 ! A34   A(16,17,19)           122.8368         estimate D2E/DX2                !
 ! A35   A(16,17,34)           119.7304         estimate D2E/DX2                !
 ! A36   A(19,17,34)           117.2952         estimate D2E/DX2                !
 ! A37   A(16,18,20)           119.1451         estimate D2E/DX2                !
 ! A38   A(16,18,21)           122.2244         estimate D2E/DX2                !
 ! A39   A(20,18,21)           118.619          estimate D2E/DX2                !
 ! A40   A(17,19,22)           119.1495         estimate D2E/DX2                !
 ! A41   A(17,19,38)           119.2745         estimate D2E/DX2                !
 ! A42   A(22,19,38)           121.574          estimate D2E/DX2                !
 ! A43   A(18,20,22)           119.8514         estimate D2E/DX2                !
 ! A44   A(18,20,23)           119.2752         estimate D2E/DX2                !
 ! A45   A(22,20,23)           120.8653         estimate D2E/DX2                !
 ! A46   A(18,21,24)           120.646          estimate D2E/DX2                !
 ! A47   A(18,21,25)           119.5891         estimate D2E/DX2                !
 ! A48   A(24,21,25)           119.7617         estimate D2E/DX2                !
 ! A49   A(19,22,20)           120.6639         estimate D2E/DX2                !
 ! A50   A(19,22,26)           120.3817         estimate D2E/DX2                !
 ! A51   A(20,22,26)           118.9448         estimate D2E/DX2                !
 ! A52   A(20,23,27)           120.6833         estimate D2E/DX2                !
 ! A53   A(20,23,28)           118.4486         estimate D2E/DX2                !
 ! A54   A(27,23,28)           120.866          estimate D2E/DX2                !
 ! A55   A(21,24,27)           120.6293         estimate D2E/DX2                !
 ! A56   A(21,24,29)           119.7266         estimate D2E/DX2                !
 ! A57   A(27,24,29)           119.6434         estimate D2E/DX2                !
 ! A58   A(23,27,24)           120.1223         estimate D2E/DX2                !
 ! A59   A(23,27,30)           120.1961         estimate D2E/DX2                !
 ! A60   A(24,27,30)           119.6787         estimate D2E/DX2                !
 ! A61   A(14,31,32)           110.4013         estimate D2E/DX2                !
 ! A62   A(14,31,33)           110.2554         estimate D2E/DX2                !
 ! A63   A(14,31,37)           100.5275         estimate D2E/DX2                !
 ! A64   A(32,31,33)           118.8148         estimate D2E/DX2                !
 ! A65   A(32,31,37)           109.4816         estimate D2E/DX2                !
 ! A66   A(33,31,37)           105.683          estimate D2E/DX2                !
 ! A67   A(17,34,35)           109.5695         estimate D2E/DX2                !
 ! A68   A(17,34,36)           109.7111         estimate D2E/DX2                !
 ! A69   A(17,34,37)           103.1958         estimate D2E/DX2                !
 ! A70   A(35,34,36)           120.3347         estimate D2E/DX2                !
 ! A71   A(35,34,37)           108.297          estimate D2E/DX2                !
 ! A72   A(36,34,37)           104.2523         estimate D2E/DX2                !
 ! A73   A(31,37,34)           125.3626         estimate D2E/DX2                !
 ! A74   A(31,37,40)           111.9979         estimate D2E/DX2                !
 ! A75   A(34,37,40)           112.3796         estimate D2E/DX2                !
 ! D1    D(6,1,2,3)              0.0273         estimate D2E/DX2                !
 ! D2    D(6,1,2,8)           -179.3241         estimate D2E/DX2                !
 ! D3    D(7,1,2,3)            179.7099         estimate D2E/DX2                !
 ! D4    D(7,1,2,8)              0.3585         estimate D2E/DX2                !
 ! D5    D(2,1,6,5)              0.9279         estimate D2E/DX2                !
 ! D6    D(2,1,6,12)          -179.7594         estimate D2E/DX2                !
 ! D7    D(7,1,6,5)           -178.7549         estimate D2E/DX2                !
 ! D8    D(7,1,6,12)             0.5578         estimate D2E/DX2                !
 ! D9    D(1,2,3,4)             -1.4085         estimate D2E/DX2                !
 ! D10   D(1,2,3,9)            179.8239         estimate D2E/DX2                !
 ! D11   D(8,2,3,4)            177.9437         estimate D2E/DX2                !
 ! D12   D(8,2,3,9)             -0.8239         estimate D2E/DX2                !
 ! D13   D(2,3,4,5)              1.851          estimate D2E/DX2                !
 ! D14   D(2,3,4,10)          -177.0462         estimate D2E/DX2                !
 ! D15   D(9,3,4,5)           -179.3439         estimate D2E/DX2                !
 ! D16   D(9,3,4,10)             1.759          estimate D2E/DX2                !
 ! D17   D(2,3,9,14)           175.5622         estimate D2E/DX2                !
 ! D18   D(2,3,9,16)            -1.5687         estimate D2E/DX2                !
 ! D19   D(4,3,9,14)            -3.1978         estimate D2E/DX2                !
 ! D20   D(4,3,9,16)           179.6713         estimate D2E/DX2                !
 ! D21   D(3,4,5,6)             -0.9437         estimate D2E/DX2                !
 ! D22   D(3,4,5,11)           179.5493         estimate D2E/DX2                !
 ! D23   D(10,4,5,6)           177.9432         estimate D2E/DX2                !
 ! D24   D(10,4,5,11)           -1.5639         estimate D2E/DX2                !
 ! D25   D(3,4,10,13)            0.9079         estimate D2E/DX2                !
 ! D26   D(3,4,10,15)          179.7805         estimate D2E/DX2                !
 ! D27   D(5,4,10,13)         -177.9725         estimate D2E/DX2                !
 ! D28   D(5,4,10,15)            0.9001         estimate D2E/DX2                !
 ! D29   D(4,5,6,1)             -0.4533         estimate D2E/DX2                !
 ! D30   D(4,5,6,12)          -179.7624         estimate D2E/DX2                !
 ! D31   D(11,5,6,1)           179.0418         estimate D2E/DX2                !
 ! D32   D(11,5,6,12)           -0.2673         estimate D2E/DX2                !
 ! D33   D(3,9,14,13)            2.1333         estimate D2E/DX2                !
 ! D34   D(3,9,14,31)         -175.4431         estimate D2E/DX2                !
 ! D35   D(16,9,14,13)         179.2049         estimate D2E/DX2                !
 ! D36   D(16,9,14,31)           1.6285         estimate D2E/DX2                !
 ! D37   D(3,9,16,17)          114.4021         estimate D2E/DX2                !
 ! D38   D(3,9,16,18)          -67.217          estimate D2E/DX2                !
 ! D39   D(14,9,16,17)         -62.616          estimate D2E/DX2                !
 ! D40   D(14,9,16,18)         115.765          estimate D2E/DX2                !
 ! D41   D(4,10,13,14)          -2.0431         estimate D2E/DX2                !
 ! D42   D(4,10,13,39)         178.3851         estimate D2E/DX2                !
 ! D43   D(15,10,13,14)        179.1008         estimate D2E/DX2                !
 ! D44   D(15,10,13,39)         -0.471          estimate D2E/DX2                !
 ! D45   D(10,13,14,9)           0.5035         estimate D2E/DX2                !
 ! D46   D(10,13,14,31)        178.1639         estimate D2E/DX2                !
 ! D47   D(39,13,14,9)        -179.9142         estimate D2E/DX2                !
 ! D48   D(39,13,14,31)         -2.2539         estimate D2E/DX2                !
 ! D49   D(9,14,31,32)         -46.3506         estimate D2E/DX2                !
 ! D50   D(9,14,31,33)        -179.6163         estimate D2E/DX2                !
 ! D51   D(9,14,31,37)          69.1825         estimate D2E/DX2                !
 ! D52   D(13,14,31,32)        135.9246         estimate D2E/DX2                !
 ! D53   D(13,14,31,33)          2.6589         estimate D2E/DX2                !
 ! D54   D(13,14,31,37)       -108.5423         estimate D2E/DX2                !
 ! D55   D(9,16,17,19)        -179.4155         estimate D2E/DX2                !
 ! D56   D(9,16,17,34)           4.9655         estimate D2E/DX2                !
 ! D57   D(18,16,17,19)          2.1716         estimate D2E/DX2                !
 ! D58   D(18,16,17,34)       -173.4474         estimate D2E/DX2                !
 ! D59   D(9,16,18,20)         178.3875         estimate D2E/DX2                !
 ! D60   D(9,16,18,21)          -2.8641         estimate D2E/DX2                !
 ! D61   D(17,16,18,20)         -3.1813         estimate D2E/DX2                !
 ! D62   D(17,16,18,21)        175.567          estimate D2E/DX2                !
 ! D63   D(16,17,19,22)          0.5279         estimate D2E/DX2                !
 ! D64   D(16,17,19,38)       -179.9615         estimate D2E/DX2                !
 ! D65   D(34,17,19,22)        176.2471         estimate D2E/DX2                !
 ! D66   D(34,17,19,38)         -4.2423         estimate D2E/DX2                !
 ! D67   D(16,17,34,35)        -49.4895         estimate D2E/DX2                !
 ! D68   D(16,17,34,36)        176.3448         estimate D2E/DX2                !
 ! D69   D(16,17,34,37)         65.6977         estimate D2E/DX2                !
 ! D70   D(19,17,34,35)        134.6523         estimate D2E/DX2                !
 ! D71   D(19,17,34,36)          0.4866         estimate D2E/DX2                !
 ! D72   D(19,17,34,37)       -110.1606         estimate D2E/DX2                !
 ! D73   D(16,18,20,22)          1.6243         estimate D2E/DX2                !
 ! D74   D(16,18,20,23)       -179.4027         estimate D2E/DX2                !
 ! D75   D(21,18,20,22)       -177.1695         estimate D2E/DX2                !
 ! D76   D(21,18,20,23)          1.8035         estimate D2E/DX2                !
 ! D77   D(16,18,21,24)        179.9214         estimate D2E/DX2                !
 ! D78   D(16,18,21,25)         -0.7265         estimate D2E/DX2                !
 ! D79   D(20,18,21,24)         -1.3239         estimate D2E/DX2                !
 ! D80   D(20,18,21,25)        178.0282         estimate D2E/DX2                !
 ! D81   D(17,19,22,20)         -2.1827         estimate D2E/DX2                !
 ! D82   D(17,19,22,26)        178.9552         estimate D2E/DX2                !
 ! D83   D(38,19,22,20)        178.3184         estimate D2E/DX2                !
 ! D84   D(38,19,22,26)         -0.5437         estimate D2E/DX2                !
 ! D85   D(18,20,22,19)          1.1021         estimate D2E/DX2                !
 ! D86   D(18,20,22,26)        179.9803         estimate D2E/DX2                !
 ! D87   D(23,20,22,19)       -177.8543         estimate D2E/DX2                !
 ! D88   D(23,20,22,26)          1.024          estimate D2E/DX2                !
 ! D89   D(18,20,23,27)         -0.9642         estimate D2E/DX2                !
 ! D90   D(18,20,23,28)        179.554          estimate D2E/DX2                !
 ! D91   D(22,20,23,27)        177.9981         estimate D2E/DX2                !
 ! D92   D(22,20,23,28)         -1.4838         estimate D2E/DX2                !
 ! D93   D(18,21,24,27)         -0.0267         estimate D2E/DX2                !
 ! D94   D(18,21,24,29)        179.6543         estimate D2E/DX2                !
 ! D95   D(25,21,24,27)       -179.3776         estimate D2E/DX2                !
 ! D96   D(25,21,24,29)          0.3034         estimate D2E/DX2                !
 ! D97   D(20,23,27,24)         -0.399          estimate D2E/DX2                !
 ! D98   D(20,23,27,30)       -179.772          estimate D2E/DX2                !
 ! D99   D(28,23,27,24)        179.0702         estimate D2E/DX2                !
 ! D100  D(28,23,27,30)         -0.3028         estimate D2E/DX2                !
 ! D101  D(21,24,27,23)          0.911          estimate D2E/DX2                !
 ! D102  D(21,24,27,30)       -179.7128         estimate D2E/DX2                !
 ! D103  D(29,24,27,23)       -178.7703         estimate D2E/DX2                !
 ! D104  D(29,24,27,30)          0.6059         estimate D2E/DX2                !
 ! D105  D(14,31,37,34)        -39.4713         estimate D2E/DX2                !
 ! D106  D(14,31,37,40)        178.3211         estimate D2E/DX2                !
 ! D107  D(32,31,37,34)         76.7497         estimate D2E/DX2                !
 ! D108  D(32,31,37,40)        -65.4579         estimate D2E/DX2                !
 ! D109  D(33,31,37,34)       -154.175          estimate D2E/DX2                !
 ! D110  D(33,31,37,40)         63.6174         estimate D2E/DX2                !
 ! D111  D(17,34,37,31)        -36.8945         estimate D2E/DX2                !
 ! D112  D(17,34,37,40)        105.1921         estimate D2E/DX2                !
 ! D113  D(35,34,37,31)         79.202          estimate D2E/DX2                !
 ! D114  D(35,34,37,40)       -138.7114         estimate D2E/DX2                !
 ! D115  D(36,34,37,31)       -151.5389         estimate D2E/DX2                !
 ! D116  D(36,34,37,40)         -9.4522         estimate D2E/DX2                !
 --------------------------------------------------------------------------------
 Trust Radius=3.00D-01 FncErr=1.00D-07 GrdErr=1.00D-06 EigMax=2.50D+02 EigMin=1.00D-04
 Number of steps in this run=    240 maximum allowed number of steps=    240.
 GradGradGradGradGradGradGradGradGradGradGradGradGradGradGradGradGradGrad

 Leave Link  103 at Thu May 15 10:10:24 2025, MaxMem=  8321499136 cpu:               0.2 elap:               0.0
 (Enter /cm/shared/apps/spack/cpu/opt/spack/linux-centos8-zen/gcc-8.3.1/gaussian-16.C.01-po5bqktfeugvmjyga3v7eigbecnokxng/g16/l202.exe)
                          Input orientation:                          
 ---------------------------------------------------------------------
 Center     Atomic      Atomic             Coordinates (Angstroms)
 Number     Number       Type             X           Y           Z
 ---------------------------------------------------------------------
      1          6           0       -2.555080    6.382831   -1.481148
      2          6           0       -2.581315    5.184419   -0.811576
      3          6           0       -1.369640    4.532971   -0.439527
      4          6           0       -0.129031    5.137978   -0.804779
      5          6           0       -0.137415    6.384718   -1.489617
      6          6           0       -1.321707    6.995929   -1.816327
      7          1           0       -3.491916    6.865793   -1.762722
      8          1           0       -3.538085    4.720527   -0.570904
      9          6           0       -1.358675    3.284032    0.262797
     10          6           0        1.094287    4.481847   -0.503656
     11          1           0        0.819246    6.838384   -1.755582
     12          1           0       -1.318958    7.950307   -2.345103
     13          6           0        1.096843    3.261958    0.119081
     14          6           0       -0.135054    2.680064    0.499731
     15          1           0        2.033479    4.956373   -0.793022
     16          6           0       -2.648640    2.639253    0.659944
     17          6           0       -3.048974    1.431199    0.115539
     18          6           0       -3.487621    3.249364    1.647643
     19          6           0       -4.267307    0.800949    0.460064
     20          6           0       -4.729827    2.630797    1.982871
     21          6           0       -3.113669    4.443032    2.329705
     22          6           0       -5.100753    1.407742    1.362785
     23          6           0       -5.571081    3.241133    2.954096
     24          6           0       -3.944093    5.001291    3.270115
     25          1           0       -2.153735    4.910875    2.109299
     26          1           0       -6.053586    0.947583    1.630296
     27          6           0       -5.190328    4.401147    3.580520
     28          1           0       -6.521215    2.760546    3.194758
     29          1           0       -3.640244    5.912504    3.787435
     30          1           0       -5.840142    4.860507    4.326972
     31         16           0       -0.058378    1.089785    1.249876
     32          8           0       -0.920606    1.032425    2.379848
     33          8           0        1.295132    0.680691    1.399186
     34         16           0       -1.966509    0.560026   -0.972879
     35          8           0       -1.484627    1.444081   -1.971506
     36          8           0       -2.551527   -0.684275   -1.336663
     37          7           0       -0.686292    0.139136    0.018002
     38          1           0       -4.524743   -0.150633   -0.003957
     39          1           0        2.024127    2.732335    0.334453
     40         53           0       -0.705882   -1.829813    0.511717
 ---------------------------------------------------------------------
                    Distance matrix (angstroms):
                    1          2          3          4          5
     1  C    0.000000
     2  C    1.373028   0.000000
     3  C    2.431507   1.425118   0.000000
     4  C    2.809421   2.452733   1.427779   0.000000
     5  C    2.417681   2.805905   2.459682   1.422475   0.000000
     6  C    1.417548   2.424398   2.822063   2.428515   1.372176
     7  H    1.090962   2.135624   3.420082   3.900256   3.399808
     8  H    2.134970   1.090196   2.180502   3.442472   3.895911
     9  C    3.751704   2.502118   1.432909   2.467561   3.765194
    10  C    4.229316   3.754793   2.465292   1.420454   2.471867
    11  H    3.415980   3.897507   3.440662   2.166711   1.091673
    12  H    2.175177   3.405200   3.913052   3.420193   2.139853
    13  C    5.063311   4.253331   2.830381   2.423992   3.723296
    14  C    4.846740   3.738384   2.416541   2.782647   4.204994
    15  H    4.854191   4.620462   3.447528   2.170154   2.690389
    16  C    4.313630   2.940710   2.535911   3.838941   4.995535
    17  C    5.226088   3.894215   3.570609   4.807625   5.965824
    18  C    4.525216   3.257850   3.238791   4.567424   5.558482
    19  C    6.152839   4.865639   4.809753   6.126580   7.213580
    20  C    5.550379   4.352703   4.558194   5.935004   6.873161
    21  C    4.312475   3.271193   3.273892   4.383606   5.216843
    22  C    6.270560   5.033756   5.190047   6.582630   7.585592
    23  C    6.215941   5.186072   5.553164   6.880630   7.691127
    24  C    5.139310   4.307076   4.539667   5.583739   6.249777
    25  H    3.901159   2.964652   2.693349   3.555679   4.380634
    26  H    7.173740   5.997515   6.251282   7.654368   8.619592
    27  C    6.040868   5.168266   5.547595   6.737247   7.427838
    28  H    7.121466   6.119533   6.548912   7.906231   8.708094
    29  H    5.399700   4.775180   4.992591   5.832404   6.351384
    30  H    6.844221   6.093402   6.543102   7.683010   8.287160
    31  S    6.458200   5.232669   4.053273   4.540316   5.962163
    32  O    6.797473   5.493833   4.517115   5.255854   6.650804
    33  O    7.458878   6.340179   5.032091   5.172341   6.552351
    34  S    5.874505   4.667871   4.052778   4.935811   6.126960
    35  O    5.077162   4.066730   3.449844   4.104116   5.143646
    36  O    7.068584   5.892213   5.424147   6.328508   7.471412
    37  N    6.687567   5.452907   4.470132   5.096659   6.448370
    38  H    6.981964   5.735150   5.663969   6.923367   8.010409
    39  H    6.131204   5.341928   3.919055   3.423603   4.619458
    40  I    8.650929   7.380231   6.467648   7.114495   8.473902
                    6          7          8          9         10
     6  C    0.000000
     7  H    2.174768   0.000000
     8  H    3.411871   2.454532   0.000000
     9  C    4.254680   4.634917   2.740147   0.000000
    10  C    3.725687   5.319935   4.639004   2.835354   0.000000
    11  H    2.147601   4.311255   4.987496   4.631481   2.682580
    12  H    1.091077   2.497416   4.301603   5.345731   4.609218
    13  C    4.851570   6.130703   4.907755   2.459819   1.369649
    14  C    5.039738   5.823018   4.109789   1.384978   2.400935
    15  H    4.057612   5.925892   5.580975   3.926600   1.091325
    16  C    5.183946   4.944094   2.576393   1.495819   4.331122
    17  C    6.138548   5.767051   3.395602   2.512327   5.182323
    18  C    5.543196   4.970832   2.662483   2.539963   5.209701
    19  C    7.227468   6.505716   4.117979   3.829459   6.574531
    20  C    6.715919   5.787666   3.508417   3.840578   6.597689
    21  C    5.188255   4.770828   2.944599   2.948795   5.073099
    22  C    7.457599   6.492108   4.141935   4.328231   7.163257
    23  C    7.410304   6.301544   4.329816   4.998929   7.610687
    24  C    6.060312   5.386119   3.872609   4.321727   6.316363
    25  H    4.522196   4.539271   3.022606   2.586176   4.190614
    26  H    8.417385   7.286970   5.040648   5.419524   8.254506
    27  C    7.129171   6.124485   4.479535   5.190067   7.495558
    28  H    8.371638   7.113811   5.188526   5.960055   8.639272
    29  H    6.160485   5.633383   4.519554   4.953534   6.547979
    30  H    7.919369   6.827863   5.413709   6.251907   8.459590
    31  S    6.773488   7.363912   5.348447   2.734925   3.988683
    32  O    7.302886   7.602677   5.400021   3.121465   4.926754
    33  O    7.554442   8.436171   6.600115   3.887346   4.255577
    34  S    6.522884   6.535550   4.465557   3.052305   4.996931
    35  O    5.556405   5.785133   4.112599   2.897135   4.246575
    36  O    7.792822   7.620327   5.547213   4.441692   6.377670
    37  N    7.126298   7.502694   5.428506   3.225274   4.722470
    38  H    8.038499   7.306861   5.002312   4.678896   7.299525
    39  H    5.830840   7.204884   5.975850   3.428244   2.151237
    40  I    9.148375   9.410028   7.218061   5.161348   6.641434
                   11         12         13         14         15
    11  H    0.000000
    12  H    2.481093   0.000000
    13  C    4.047499   5.821419   0.000000
    14  C    4.825842   6.104930   1.414590   0.000000
    15  H    2.437796   4.755148   2.140154   3.399313   0.000000
    16  C    5.957659   6.245451   3.835223   2.519017   5.422397
    17  C    6.906654   7.179588   4.532051   3.193462   6.251693
    18  C    6.558362   6.537888   4.832595   3.589082   6.273219
    19  C    8.199557   8.226484   5.911594   4.539621   7.650992
    20  C    7.903925   7.659150   6.149972   4.828465   7.671779
    21  C    6.155900   6.113575   4.900021   3.915228   6.042191
    22  C    8.617568   8.417575   6.587497   5.198253   8.254547
    23  C    8.715363   8.266703   7.245616   5.990751   8.649409
    24  C    7.163933   6.864306   6.193975   5.250895   7.227895
    25  H    5.243206   5.456803   4.152849   3.412081   5.094929
    26  H    9.664446   9.341233   7.666077   6.269664   9.345774
    27  C    8.398160   7.918147   7.266900   6.165159   8.462832
    28  H    9.747666   9.202563   8.230796   6.932005   9.690554
    29  H    7.174214   6.866515   6.551504   5.791720   7.354312
    30  H    9.233467   8.631602   8.269430   7.207644   9.392414
    31  S    6.545945   7.847273   2.707687   1.759995   4.847659
    32  O    7.337440   8.386950   3.761912   2.620429   5.847315
    33  O    6.935143   8.584899   2.888066   2.617622   4.861316
    34  S    6.913091   7.544440   4.228113   3.165023   5.946438
    35  O    5.869664   6.519049   3.786716   3.075063   5.109020
    36  O    8.253969   8.780215   5.567993   4.531055   7.289358
    37  N    7.091697   8.185287   3.597472   2.644285   5.591126
    38  H    8.970661   9.021267   6.577473   5.247468   8.349516
    39  H    4.762313   6.751553   1.089377   2.166128   2.493518
    40  I    9.088691  10.207254   5.415729   4.545875   7.433624
                   16         17         18         19         20
    16  C    0.000000
    17  C    1.384210   0.000000
    18  C    1.432367   2.417742   0.000000
    19  C    2.457518   1.414301   2.830723   0.000000
    20  C    2.466079   2.784103   1.427613   2.425121   0.000000
    21  C    2.501594   3.738697   1.424743   4.253376   2.452847
    22  C    2.832572   2.401243   2.464733   1.370305   1.420548
    23  C    3.763782   4.206458   2.459206   3.724852   1.422497
    24  C    3.751055   4.847488   2.431055   5.063964   2.809558
    25  H    2.739677   4.109097   2.180137   4.907001   3.442527
    26  H    3.923900   3.399421   3.447125   2.140499   2.170220
    27  C    4.253729   5.041040   2.821671   4.852900   2.428720
    28  H    4.629993   4.827547   3.440233   4.049527   2.166697
    29  H    4.634507   5.823617   3.419696   6.131280   3.900416
    30  H    5.344787   6.106303   3.912664   5.822954   3.420412
    31  S    3.075439   3.216667   4.072064   4.292122   4.973373
    32  O    2.919943   3.133060   3.469944   3.865173   4.150006
    33  O    4.464950   4.591543   5.434569   5.642441   6.359539
    34  S    2.730311   1.765029   4.051352   2.721220   4.545380
    35  O    3.115749   2.608276   4.513233   3.750928   5.251354
    36  O    3.878364   2.613728   5.025522   2.894481   5.172427
    37  N    3.242450   2.694663   4.491847   3.668390   5.139967
    38  H    3.426951   2.166649   3.919615   1.089540   3.424310
    39  H    4.685014   5.241873   5.689565   6.582414   6.952948
    40  I    4.875329   4.035002   5.901393   4.428016   6.184939
                   21         22         23         24         25
    21  C    0.000000
    22  C    3.754520   0.000000
    23  C    2.805940   2.472813   0.000000
    24  C    1.373182   4.229582   2.417667   0.000000
    25  H    1.090380   4.638334   3.896149   2.135662   0.000000
    26  H    4.620655   1.091421   2.691771   4.855051   5.580857
    27  C    2.424625   3.726506   1.372229   1.417613   3.412508
    28  H    3.897492   2.684011   1.091621   3.415871   4.987687
    29  H    2.135792   5.320234   3.399825   1.090987   2.455425
    30  H    3.405439   4.610281   2.139989   2.175263   4.302349
    31  S    4.663164   5.053651   6.158129   5.871970   4.441830
    32  O    4.055155   4.318438   5.180258   5.068130   4.078747
    33  O    5.870145   6.437179   7.491227   7.043965   5.503944
    34  S    5.225014   3.999679   5.966775   6.452803   5.335238
    35  O    5.490710   4.918860   6.647560   6.795389   5.396233
    36  O    6.328312   4.261702   6.552644   7.448980   6.583206
    37  N    5.455241   4.785945   6.488775   6.695525   5.412615
    38  H    5.342178   2.151349   4.620495   6.131804   5.975483
    39  H    5.771002   7.319558   8.050378   7.027512   5.034942
    40  I    6.960683   5.524579   7.439750   8.047283   7.077106
                   26         27         28         29         30
    26  H    0.000000
    27  C    4.059026   0.000000
    28  H    2.439888   2.147474   0.000000
    29  H    5.926880   2.174804   4.311160   0.000000
    30  H    4.756952   1.091082   2.481049   2.497469   0.000000
    31  S    6.008948   6.537119   6.952861   6.521318   7.557490
    32  O    5.188112   5.569598   5.917542   5.761328   6.530493
    33  O    7.357194   7.788530   8.285237   7.578492   8.772396
    34  S    4.861164   6.773527   6.554146   7.356018   7.847776
    35  O    5.839082   7.300784   7.334206   7.601243   8.385303
    36  O    4.871368   7.550065   6.939668   8.423727   8.581163
    37  N    5.662237   7.151406   7.142121   7.501082   8.211013
    38  H    2.492834   5.831825   4.763679   7.205458   6.752684
    39  H    8.373410   8.085187   9.011382   7.356742   9.072819
    40  I    6.128873   8.267568   7.879607   8.904173   9.256197
                   31         32         33         34         35
    31  S    0.000000
    32  O    1.422520   0.000000
    33  O    1.421844   2.448450   0.000000
    34  S    2.976953   3.543706   4.034793   0.000000
    35  O    3.540765   4.407024   4.435244   1.418104   0.000000
    36  O    4.006653   4.406747   4.913735   1.422276   2.463981
    37  N    1.677952   2.535978   2.475276   1.672707   2.509654
    38  H    4.801994   4.480174   6.044076   2.826377   3.956851
    39  H    2.805850   3.967970   2.423702   4.727919   4.391856
    40  I    3.080291   3.424680   3.330809   3.082943   4.182251
                   36         37         38         39         40
    36  O    0.000000
    37  N    2.447902   0.000000
    38  H    2.440176   3.849436   0.000000
    39  H    5.949997   3.764465   7.163360   0.000000
    40  I    2.852222   2.030000   4.203483   5.319546   0.000000
 Symmetry turned off by external request.
 Stoichiometry    C20H12INO4S2
 Framework group  C1[X(C20H12INO4S2)]
 Deg. of freedom   114
 Full point group                 C1      NOp   1
 Rotational constants (GHZ):           0.2087334           0.1104409           0.0894472
 Leave Link  202 at Thu May 15 10:10:24 2025, MaxMem=  8321499136 cpu:               0.1 elap:               0.0
 (Enter /cm/shared/apps/spack/cpu/opt/spack/linux-centos8-zen/gcc-8.3.1/gaussian-16.C.01-po5bqktfeugvmjyga3v7eigbecnokxng/g16/l301.exe)
 General basis read from cards:  (5D, 7F)
 Centers:       1      2      3      4      5      6      9     10     13     14
 Centers:      16     17     18     19     20     21     22     23     24     27
 Centers:       7      8     11     12     15     25     26     28     29     30
 Centers:      38     39     37     32     33     35     36
 def2svp
 ****
 Centers:      40     31     34
 def2tzvp
 ****
 ======================================================================================================
                                       Pseudopotential Parameters
 ======================================================================================================
  Center     Atomic      Valence      Angular      Power
  Number     Number     Electrons     Momentum     of R      Exponent        Coefficient   SO-Coeffient
 ======================================================================================================
    1          6
                                   No pseudopotential on this center.
    2          6
                                   No pseudopotential on this center.
    3          6
                                   No pseudopotential on this center.
    4          6
                                   No pseudopotential on this center.
    5          6
                                   No pseudopotential on this center.
    6          6
                                   No pseudopotential on this center.
    7          1
                                   No pseudopotential on this center.
    8          1
                                   No pseudopotential on this center.
    9          6
                                   No pseudopotential on this center.
   10          6
                                   No pseudopotential on this center.
   11          1
                                   No pseudopotential on this center.
   12          1
                                   No pseudopotential on this center.
   13          6
                                   No pseudopotential on this center.
   14          6
                                   No pseudopotential on this center.
   15          1
                                   No pseudopotential on this center.
   16          6
                                   No pseudopotential on this center.
   17          6
                                   No pseudopotential on this center.
   18          6
                                   No pseudopotential on this center.
   19          6
                                   No pseudopotential on this center.
   20          6
                                   No pseudopotential on this center.
   21          6
                                   No pseudopotential on this center.
   22          6
                                   No pseudopotential on this center.
   23          6
                                   No pseudopotential on this center.
   24          6
                                   No pseudopotential on this center.
   25          1
                                   No pseudopotential on this center.
   26          1
                                   No pseudopotential on this center.
   27          6
                                   No pseudopotential on this center.
   28          1
                                   No pseudopotential on this center.
   29          1
                                   No pseudopotential on this center.
   30          1
                                   No pseudopotential on this center.
   31         16
                                   No pseudopotential on this center.
   32          8
                                   No pseudopotential on this center.
   33          8
                                   No pseudopotential on this center.
   34         16
                                   No pseudopotential on this center.
   35          8
                                   No pseudopotential on this center.
   36          8
                                   No pseudopotential on this center.
   37          7
                                   No pseudopotential on this center.
   38          1
                                   No pseudopotential on this center.
   39          1
                                   No pseudopotential on this center.
   40         53           25
                                      G and up 
                                                     2        1.0000000        0.00000000    0.00000000
                                      S - G
                                                     2       40.0158350       49.99429300    0.00000000
                                                     2       17.4297470      281.02531700    0.00000000
                                                     2        9.0054840       61.57332600    0.00000000
                                      P - G
                                                     2       15.3554660       67.44284100 -134.88568300
                                                     2       14.9718330      134.88113700  134.88113700
                                                     2        8.9601640       14.67505100  -29.35010100
                                                     2        8.2590960       29.37566600   29.37566600
                                      D - G
                                                     2       15.0689080       35.43952900  -35.43952900
                                                     2       14.5553220       53.17605700   35.45070400
                                                     2        6.7186470        9.06719500   -9.06719500
                                                     2        6.4563930       13.20693700    8.80462400
                                                     2        1.1917790        0.08933500   -0.08933500
                                                     2        1.2911570        0.05238000    0.03492000
                                      F - G
                                                     2       19.4586090      -21.84204000   14.56136000
                                                     2       19.3492600      -28.46819100  -14.23409500
                                                     2        4.8237670       -0.24371300    0.16247500
                                                     2        4.8843150       -0.32080400   -0.16040200
 ======================================================================================================
 Ernie: Thresh=  0.10000D-02 Tol=  0.10000D-05 Strict=F.
   534 basis functions,   956 primitive gaussians,   578 cartesian basis functions
   114 alpha electrons      114 beta electrons
       nuclear repulsion energy      3517.6721173405 Hartrees.
 IExCor= 4336 DFT=T Ex+Corr=M062X ExCW=0 ScaHFX=  0.540000
 ScaDFX=  1.000000  1.000000  1.000000  1.000000 ScalE2=  1.000000  1.000000
 IRadAn=      5 IRanWt=     -1 IRanGd=            0 ICorTp=0 IEmpDi=131
 NAtoms=   40 NActive=   40 NUniq=   40 SFac= 1.00D+00 NAtFMM=   60 NAOKFM=F Big=F
 Integral buffers will be    131072 words long.
 Raffenetti 2 integral format.
 Two-electron integral symmetry is turned off.
 R6Disp:  Grimme-D3 Dispersion energy=       -0.0037383728 Hartrees.
 Nuclear repulsion after empirical dispersion term =     3517.6683789677 Hartrees.
 ------------------------------------------------------------------------------
 Polarizable Continuum Model (PCM)
 =================================
 Model                : PCM.
 Atomic radii         : SMD-Coulomb.
 Polarization charges : Total charges.
 Charge compensation  : None.
 Solution method      : On-the-fly selection.
 Cavity type          : VdW (van der Waals Surface) (Alpha=1.000).
 Cavity algorithm     : GePol (No added spheres)
                        Default sphere list used, NSphG=   40.
                        Lebedev-Laikov grids with approx.  5.0 points / Ang**2.
                        Smoothing algorithm: York/Karplus (Gamma=1.0000).
                        Polarization charges: spherical gaussians, with
                                              point-specific exponents (IZeta= 3).
                        Self-potential: point-specific (ISelfS= 7).
                        Self-field    : sphere-specific E.n sum rule (ISelfD= 2).
 1st derivatives      : Analytical E(r).r(x)/FMM algorithm (CHGder, D1EAlg=3).
                        Cavity 1st derivative terms included.
 Solvent              : PropylEthanoate, Eps=   5.520500 Eps(inf)=   1.916010
 ------------------------------------------------------------------------------
 GePol: Number of generator spheres                  =      40
 GePol: Total number of spheres                      =      40
 GePol: Number of exposed spheres                    =      40 (100.00%)
 GePol: Number of points                             =    3328
 GePol: Average weight of points                     =       0.12
 GePol: Minimum weight of points                     =   0.53D-10
 GePol: Maximum weight of points                     =    0.19582
 GePol: Number of points with low weight             =     182
 GePol: Fraction of low-weight points (<1% of avg)   =       5.47%
 GePol: Cavity surface area                          =    388.728 Ang**2
 GePol: Cavity volume                                =    433.434 Ang**3
 ------------------------------------------------------------------------------
 Atomic radii for non-electrostatic terms: SMD-CDS.
 ------------------------------------------------------------------------------
 PCM non-electrostatic energy =        -0.0111989818 Hartrees.
 Nuclear repulsion after PCM non-electrostatic terms =     3517.6571799859 Hartrees.
 Leave Link  301 at Thu May 15 10:10:24 2025, MaxMem=  8321499136 cpu:               2.1 elap:               0.1
 (Enter /cm/shared/apps/spack/cpu/opt/spack/linux-centos8-zen/gcc-8.3.1/gaussian-16.C.01-po5bqktfeugvmjyga3v7eigbecnokxng/g16/l302.exe)
 NPDir=0 NMtPBC=     1 NCelOv=     1 NCel=       1 NClECP=     1 NCelD=      1
         NCelK=      1 NCelE2=     1 NClLst=     1 CellRange=     0.0.
 One-electron integrals computed using PRISM.
   1 Symmetry operations used in ECPInt.
 ECPInt:  NShTT=   26106 NPrTT=   99703 LenC2=   23294 LenP2D=   59132.
 LDataN:  DoStor=T MaxTD1= 7 Len=  274
 NBasis=   534 RedAO= T EigKep=  1.74D-04  NBF=   534
 NBsUse=   534 1.00D-06 EigRej= -1.00D+00 NBFU=   534
 Precomputing XC quadrature grid using
 IXCGrd= 4 IRadAn=           5 IRanWt=          -1 IRanGd=           0 AccXCQ= 0.00D+00.
 Defaulting to unpruned grid for atomic number  53.
 Generated NRdTot=       0 NPtTot=           0 NUsed=           0 NTot=          32
 NSgBfM=   571   571   571   571   571 MxSgAt=    40 MxSgA2=    40.
 Leave Link  302 at Thu May 15 10:10:25 2025, MaxMem=  8321499136 cpu:              18.6 elap:               0.6
 (Enter /cm/shared/apps/spack/cpu/opt/spack/linux-centos8-zen/gcc-8.3.1/gaussian-16.C.01-po5bqktfeugvmjyga3v7eigbecnokxng/g16/l303.exe)
 DipDrv:  MaxL=1.
 Leave Link  303 at Thu May 15 10:10:25 2025, MaxMem=  8321499136 cpu:               1.5 elap:               0.1
 (Enter /cm/shared/apps/spack/cpu/opt/spack/linux-centos8-zen/gcc-8.3.1/gaussian-16.C.01-po5bqktfeugvmjyga3v7eigbecnokxng/g16/l401.exe)
 ExpMin= 7.49D-02 ExpMax= 6.07D+04 ExpMxC= 2.07D+03 IAcc=3 IRadAn=         5 AccDes= 0.00D+00
 Harris functional with IExCor= 1009 and IRadAn=       5 diagonalized for initial guess.
 HarFok:  IExCor= 1009 AccDes= 0.00D+00 IRadAn=         5 IDoV= 1 UseB2=F ITyADJ=14
 ICtDFT=  3500011 ScaDFX=  1.000000  1.000000  1.000000  1.000000
 Defaulting to unpruned grid for atomic number  53.
 FoFCou: FMM=F IPFlag=           0 FMFlag=      100000 FMFlg1=           0
         NFxFlg=           0 DoJE=T BraDBF=F KetDBF=T FulRan=T
         wScrn=  0.000000 ICntrl=       500 IOpCl=  0 I1Cent=   200000004 NGrid=           0
         NMat0=    1 NMatS0=      1 NMatT0=    0 NMatD0=    1 NMtDS0=    0 NMtDT0=    0
 Symmetry not used in FoFCou.
 Harris En= -2217.18429973163    
 JPrj=0 DoOrth=F DoCkMO=F.
 Leave Link  401 at Thu May 15 10:10:26 2025, MaxMem=  8321499136 cpu:              37.2 elap:               1.2
 (Enter /cm/shared/apps/spack/cpu/opt/spack/linux-centos8-zen/gcc-8.3.1/gaussian-16.C.01-po5bqktfeugvmjyga3v7eigbecnokxng/g16/l502.exe)
 Two-electron integral symmetry not used.
 Closed shell SCF:
 Using DIIS extrapolation, IDIIS=  1040.
 NGot=  8321499136 LenX=  8320807256 LenY=  8320472594
 Requested convergence on RMS density matrix=1.00D-08 within 128 cycles.
 Requested convergence on MAX density matrix=1.00D-06.
 Requested convergence on             energy=1.00D-06.
 No special actions if energy rises.
 Fock matrices will be formed incrementally for  20 cycles.

 Cycle   1  Pass 1  IDiag  1:
 FoFJK:  IHMeth= 1 ICntrl=       0 DoSepK=F KAlg= 0 I1Cent=           0 FoldK=F
 IRaf= 830000000 NMat=       1 IRICut=       1 DoRegI=T DoRafI=F ISym2E= 0 IDoP0=0 IntGTp=1.
 FoFCou: FMM=F IPFlag=           0 FMFlag=      100000 FMFlg1=           0
         NFxFlg=           0 DoJE=F BraDBF=F KetDBF=F FulRan=T
         wScrn=  0.000000 ICntrl=         0 IOpCl=  0 I1Cent=           0 NGrid=           0
         NMat0=    1 NMatS0=      1 NMatT0=    0 NMatD0=    1 NMtDS0=    0 NMtDT0=    0
 Symmetry not used in FoFCou.
 Defaulting to unpruned grid for atomic number  53.
 Defaulting to unpruned grid for atomic number  53.
 Defaulting to unpruned grid for atomic number  53.
 Defaulting to unpruned grid for atomic number  53.
 Defaulting to unpruned grid for atomic number  53.
 Defaulting to unpruned grid for atomic number  53.
 Defaulting to unpruned grid for atomic number  53.
 Defaulting to unpruned grid for atomic number  53.
 Defaulting to unpruned grid for atomic number  53.
 Defaulting to unpruned grid for atomic number  53.
 Defaulting to unpruned grid for atomic number  53.
 Defaulting to unpruned grid for atomic number  53.
 Defaulting to unpruned grid for atomic number  53.
 Defaulting to unpruned grid for atomic number  53.
 Defaulting to unpruned grid for atomic number  53.
 Defaulting to unpruned grid for atomic number  53.
 Defaulting to unpruned grid for atomic number  53.
 Defaulting to unpruned grid for atomic number  53.
 Defaulting to unpruned grid for atomic number  53.
 Defaulting to unpruned grid for atomic number  53.
 Defaulting to unpruned grid for atomic number  53.
 Defaulting to unpruned grid for atomic number  53.
 Defaulting to unpruned grid for atomic number  53.
 Defaulting to unpruned grid for atomic number  53.
 Defaulting to unpruned grid for atomic number  53.
 Defaulting to unpruned grid for atomic number  53.
 Defaulting to unpruned grid for atomic number  53.
 Defaulting to unpruned grid for atomic number  53.
 Defaulting to unpruned grid for atomic number  53.
 Defaulting to unpruned grid for atomic number  53.
 Defaulting to unpruned grid for atomic number  53.
 Defaulting to unpruned grid for atomic number  53.
 Inv3:  Mode=1 IEnd=    33226752.
 Iteration    1 A*A^-1 deviation from unit magnitude is 4.00D-15 for   1008.
 Iteration    1 A*A^-1 deviation from orthogonality  is 2.66D-15 for   1720   1392.
 Iteration    1 A^-1*A deviation from unit magnitude is 3.55D-15 for   1008.
 Iteration    1 A^-1*A deviation from orthogonality  is 3.40D-15 for   2206   2160.
 E= -2216.99661870066    
 DIIS: error= 3.64D-02 at cycle   1 NSaved=   1.
 NSaved= 1 IEnMin= 1 EnMin= -2216.99661870066     IErMin= 1 ErrMin= 3.64D-02
 ErrMax= 3.64D-02  0.00D+00 EMaxC= 1.00D-01 BMatC= 9.55D-01 BMatP= 9.55D-01
 IDIUse=3 WtCom= 6.36D-01 WtEn= 3.64D-01
 Coeff-Com:  0.100D+01
 Coeff-En:   0.100D+01
 Coeff:      0.100D+01
 Gap=     0.385 Goal=   None    Shift=    0.000
 GapD=    0.385 DampG=1.000 DampE=0.500 DampFc=0.5000 IDamp=-1.
 Damping current iteration by 5.00D-01
 RMSDP=3.86D-03 MaxDP=2.70D-01              OVMax= 2.01D-01

 Cycle   2  Pass 1  IDiag  1:
 RMSU=  1.90D-03    CP:  9.82D-01
 E= -2217.26189971560     Delta-E=       -0.265281014948 Rises=F Damp=T
 DIIS: error= 7.08D-03 at cycle   2 NSaved=   2.
 NSaved= 2 IEnMin= 2 EnMin= -2217.26189971560     IErMin= 2 ErrMin= 7.08D-03
 ErrMax= 7.08D-03  0.00D+00 EMaxC= 1.00D-01 BMatC= 1.06D-01 BMatP= 9.55D-01
 IDIUse=3 WtCom= 9.29D-01 WtEn= 7.08D-02
 Coeff-Com:  0.116D+00 0.884D+00
 Coeff-En:   0.221D+00 0.779D+00
 Coeff:      0.123D+00 0.877D+00
 Gap=     0.236 Goal=   None    Shift=    0.000
 RMSDP=1.48D-03 MaxDP=8.84D-02 DE=-2.65D-01 OVMax= 1.38D-01

 Cycle   3  Pass 1  IDiag  1:
 RMSU=  1.43D-03    CP:  9.63D-01  9.80D-01
 E= -2217.65974787351     Delta-E=       -0.397848157904 Rises=F Damp=F
 DIIS: error= 9.41D-03 at cycle   3 NSaved=   3.
 NSaved= 3 IEnMin= 3 EnMin= -2217.65974787351     IErMin= 2 ErrMin= 7.08D-03
 ErrMax= 9.41D-03  0.00D+00 EMaxC= 1.00D-01 BMatC= 7.93D-02 BMatP= 1.06D-01
 IDIUse=3 WtCom= 9.06D-01 WtEn= 9.41D-02
 Coeff-Com: -0.328D-01 0.462D+00 0.571D+00
 Coeff-En:   0.000D+00 0.000D+00 0.100D+01
 Coeff:     -0.297D-01 0.419D+00 0.611D+00
 Gap=     0.226 Goal=   None    Shift=    0.000
 RMSDP=7.24D-04 MaxDP=4.68D-02 DE=-3.98D-01 OVMax= 4.51D-02

 Cycle   4  Pass 1  IDiag  1:
 RMSU=  4.54D-04    CP:  9.66D-01  1.09D+00  6.36D-01
 E= -2217.71972047282     Delta-E=       -0.059972599309 Rises=F Damp=F
 DIIS: error= 2.48D-03 at cycle   4 NSaved=   4.
 NSaved= 4 IEnMin= 4 EnMin= -2217.71972047282     IErMin= 4 ErrMin= 2.48D-03
 ErrMax= 2.48D-03  0.00D+00 EMaxC= 1.00D-01 BMatC= 1.02D-02 BMatP= 7.93D-02
 IDIUse=3 WtCom= 9.75D-01 WtEn= 2.48D-02
 Coeff-Com: -0.224D-01 0.974D-01 0.307D+00 0.618D+00
 Coeff-En:   0.000D+00 0.000D+00 0.854D-01 0.915D+00
 Coeff:     -0.218D-01 0.949D-01 0.301D+00 0.626D+00
 Gap=     0.225 Goal=   None    Shift=    0.000
 RMSDP=2.15D-04 MaxDP=2.26D-02 DE=-6.00D-02 OVMax= 1.52D-02

 Cycle   5  Pass 1  IDiag  1:
 RMSU=  1.14D-04    CP:  9.65D-01  1.06D+00  7.21D-01  7.29D-01
 E= -2217.72800019016     Delta-E=       -0.008279717340 Rises=F Damp=F
 DIIS: error= 7.93D-04 at cycle   5 NSaved=   5.
 NSaved= 5 IEnMin= 5 EnMin= -2217.72800019016     IErMin= 5 ErrMin= 7.93D-04
 ErrMax= 7.93D-04  0.00D+00 EMaxC= 1.00D-01 BMatC= 6.09D-04 BMatP= 1.02D-02
 IDIUse=3 WtCom= 9.92D-01 WtEn= 7.93D-03
 Coeff-Com: -0.778D-02 0.107D-01 0.892D-01 0.288D+00 0.620D+00
 Coeff-En:   0.000D+00 0.000D+00 0.000D+00 0.000D+00 0.100D+01
 Coeff:     -0.772D-02 0.106D-01 0.885D-01 0.286D+00 0.623D+00
 Gap=     0.224 Goal=   None    Shift=    0.000
 RMSDP=5.09D-05 MaxDP=4.85D-03 DE=-8.28D-03 OVMax= 4.54D-03

 Cycle   6  Pass 1  IDiag  1:
 RMSU=  3.77D-05    CP:  9.65D-01  1.07D+00  7.23D-01  7.48D-01  7.57D-01
 E= -2217.72852888345     Delta-E=       -0.000528693296 Rises=F Damp=F
 DIIS: error= 1.20D-04 at cycle   6 NSaved=   6.
 NSaved= 6 IEnMin= 6 EnMin= -2217.72852888345     IErMin= 6 ErrMin= 1.20D-04
 ErrMax= 1.20D-04  0.00D+00 EMaxC= 1.00D-01 BMatC= 2.88D-05 BMatP= 6.09D-04
 IDIUse=3 WtCom= 9.99D-01 WtEn= 1.20D-03
 Coeff-Com: -0.131D-02-0.189D-02 0.815D-02 0.490D-01 0.223D+00 0.723D+00
 Coeff-En:   0.000D+00 0.000D+00 0.000D+00 0.000D+00 0.000D+00 0.100D+01
 Coeff:     -0.131D-02-0.189D-02 0.814D-02 0.489D-01 0.223D+00 0.724D+00
 Gap=     0.224 Goal=   None    Shift=    0.000
 RMSDP=1.52D-05 MaxDP=8.76D-04 DE=-5.29D-04 OVMax= 1.08D-03

 Cycle   7  Pass 1  IDiag  1:
 RMSU=  1.22D-05    CP:  9.65D-01  1.07D+00  7.23D-01  7.57D-01  8.07D-01
                    CP:  8.43D-01
 E= -2217.72855380447     Delta-E=       -0.000024921017 Rises=F Damp=F
 DIIS: error= 4.50D-05 at cycle   7 NSaved=   7.
 NSaved= 7 IEnMin= 7 EnMin= -2217.72855380447     IErMin= 7 ErrMin= 4.50D-05
 ErrMax= 4.50D-05  0.00D+00 EMaxC= 1.00D-01 BMatC= 4.44D-06 BMatP= 2.88D-05
 IDIUse=1 WtCom= 1.00D+00 WtEn= 0.00D+00
 Coeff-Com: -0.359D-04-0.174D-02-0.431D-02-0.311D-02 0.522D-01 0.336D+00
 Coeff-Com:  0.621D+00
 Coeff:     -0.359D-04-0.174D-02-0.431D-02-0.311D-02 0.522D-01 0.336D+00
 Coeff:      0.621D+00
 Gap=     0.224 Goal=   None    Shift=    0.000
 RMSDP=5.81D-06 MaxDP=3.95D-04 DE=-2.49D-05 OVMax= 5.54D-04

 Cycle   8  Pass 1  IDiag  1:
 RMSU=  4.60D-06    CP:  9.65D-01  1.07D+00  7.24D-01  7.59D-01  8.20D-01
                    CP:  8.98D-01  8.44D-01
 E= -2217.72855833358     Delta-E=       -0.000004529110 Rises=F Damp=F
 DIIS: error= 1.84D-05 at cycle   8 NSaved=   8.
 NSaved= 8 IEnMin= 8 EnMin= -2217.72855833358     IErMin= 8 ErrMin= 1.84D-05
 ErrMax= 1.84D-05  0.00D+00 EMaxC= 1.00D-01 BMatC= 3.66D-07 BMatP= 4.44D-06
 IDIUse=1 WtCom= 1.00D+00 WtEn= 0.00D+00
 Coeff-Com:  0.125D-03-0.227D-03-0.339D-02-0.998D-02-0.151D-01 0.104D-01
 Coeff-Com:  0.208D+00 0.811D+00
 Coeff:      0.125D-03-0.227D-03-0.339D-02-0.998D-02-0.151D-01 0.104D-01
 Coeff:      0.208D+00 0.811D+00
 Gap=     0.224 Goal=   None    Shift=    0.000
 RMSDP=2.36D-06 MaxDP=8.40D-05 DE=-4.53D-06 OVMax= 2.57D-04

 Cycle   9  Pass 1  IDiag  1:
 RMSU=  1.70D-06    CP:  9.65D-01  1.07D+00  7.24D-01  7.59D-01  8.26D-01
                    CP:  9.21D-01  9.17D-01  8.73D-01
 E= -2217.72855886004     Delta-E=       -0.000000526462 Rises=F Damp=F
 DIIS: error= 7.35D-06 at cycle   9 NSaved=   9.
 NSaved= 9 IEnMin= 9 EnMin= -2217.72855886004     IErMin= 9 ErrMin= 7.35D-06
 ErrMax= 7.35D-06  0.00D+00 EMaxC= 1.00D-01 BMatC= 5.85D-08 BMatP= 3.66D-07
 IDIUse=1 WtCom= 1.00D+00 WtEn= 0.00D+00
 Coeff-Com:  0.397D-04 0.102D-03-0.116D-02-0.436D-02-0.109D-01-0.207D-01
 Coeff-Com:  0.386D-01 0.358D+00 0.641D+00
 Coeff:      0.397D-04 0.102D-03-0.116D-02-0.436D-02-0.109D-01-0.207D-01
 Coeff:      0.386D-01 0.358D+00 0.641D+00
 Gap=     0.224 Goal=   None    Shift=    0.000
 RMSDP=7.33D-07 MaxDP=2.62D-05 DE=-5.26D-07 OVMax= 8.07D-05

 Cycle  10  Pass 1  IDiag  1:
 RMSU=  5.26D-07    CP:  9.65D-01  1.07D+00  7.24D-01  7.59D-01  8.27D-01
                    CP:  9.24D-01  9.32D-01  9.68D-01  9.72D-01
 E= -2217.72855892936     Delta-E=       -0.000000069323 Rises=F Damp=F
 DIIS: error= 2.20D-06 at cycle  10 NSaved=  10.
 NSaved=10 IEnMin=10 EnMin= -2217.72855892936     IErMin=10 ErrMin= 2.20D-06
 ErrMax= 2.20D-06  0.00D+00 EMaxC= 1.00D-01 BMatC= 5.19D-09 BMatP= 5.85D-08
 IDIUse=1 WtCom= 1.00D+00 WtEn= 0.00D+00
 Coeff-Com: -0.665D-05 0.624D-04 0.711D-04-0.119D-03-0.159D-02-0.826D-02
 Coeff-Com: -0.158D-01 0.444D-02 0.200D+00 0.821D+00
 Coeff:     -0.665D-05 0.624D-04 0.711D-04-0.119D-03-0.159D-02-0.826D-02
 Coeff:     -0.158D-01 0.444D-02 0.200D+00 0.821D+00
 Gap=     0.224 Goal=   None    Shift=    0.000
 RMSDP=3.20D-07 MaxDP=1.20D-05 DE=-6.93D-08 OVMax= 4.13D-05

 Cycle  11  Pass 1  IDiag  1:
 RMSU=  2.34D-07    CP:  9.65D-01  1.07D+00  7.24D-01  7.59D-01  8.27D-01
                    CP:  9.26D-01  9.38D-01  9.80D-01  1.07D+00  9.42D-01
 E= -2217.72855893916     Delta-E=       -0.000000009793 Rises=F Damp=F
 DIIS: error= 1.19D-06 at cycle  11 NSaved=  11.
 NSaved=11 IEnMin=11 EnMin= -2217.72855893916     IErMin=11 ErrMin= 1.19D-06
 ErrMax= 1.19D-06  0.00D+00 EMaxC= 1.00D-01 BMatC= 1.95D-09 BMatP= 5.19D-09
 IDIUse=1 WtCom= 1.00D+00 WtEn= 0.00D+00
 Coeff-Com: -0.864D-05 0.148D-04 0.220D-03 0.629D-03 0.858D-03-0.115D-02
 Coeff-Com: -0.145D-01-0.580D-01-0.111D-01 0.444D+00 0.639D+00
 Coeff:     -0.864D-05 0.148D-04 0.220D-03 0.629D-03 0.858D-03-0.115D-02
 Coeff:     -0.145D-01-0.580D-01-0.111D-01 0.444D+00 0.639D+00
 Gap=     0.224 Goal=   None    Shift=    0.000
 RMSDP=1.68D-07 MaxDP=8.41D-06 DE=-9.79D-09 OVMax= 1.54D-05

 Cycle  12  Pass 1  IDiag  1:
 RMSU=  8.67D-08    CP:  9.65D-01  1.07D+00  7.24D-01  7.59D-01  8.27D-01
                    CP:  9.26D-01  9.40D-01  9.89D-01  1.11D+00  1.10D+00
                    CP:  8.30D-01
 E= -2217.72855894188     Delta-E=       -0.000000002724 Rises=F Damp=F
 DIIS: error= 3.60D-07 at cycle  12 NSaved=  12.
 NSaved=12 IEnMin=12 EnMin= -2217.72855894188     IErMin=12 ErrMin= 3.60D-07
 ErrMax= 3.60D-07  0.00D+00 EMaxC= 1.00D-01 BMatC= 1.27D-10 BMatP= 1.95D-09
 IDIUse=1 WtCom= 1.00D+00 WtEn= 0.00D+00
 Coeff-Com: -0.178D-05-0.364D-05 0.803D-04 0.277D-03 0.573D-03 0.722D-03
 Coeff-Com: -0.318D-02-0.228D-01-0.311D-01 0.753D-01 0.222D+00 0.758D+00
 Coeff:     -0.178D-05-0.364D-05 0.803D-04 0.277D-03 0.573D-03 0.722D-03
 Coeff:     -0.318D-02-0.228D-01-0.311D-01 0.753D-01 0.222D+00 0.758D+00
 Gap=     0.224 Goal=   None    Shift=    0.000
 RMSDP=4.97D-08 MaxDP=2.06D-06 DE=-2.72D-09 OVMax= 7.44D-06

 Cycle  13  Pass 1  IDiag  1:
 RMSU=  3.15D-08    CP:  9.65D-01  1.07D+00  7.24D-01  7.59D-01  8.27D-01
                    CP:  9.26D-01  9.40D-01  9.90D-01  1.13D+00  1.14D+00
                    CP:  9.43D-01  1.05D+00
 E= -2217.72855894213     Delta-E=       -0.000000000249 Rises=F Damp=F
 DIIS: error= 1.28D-07 at cycle  13 NSaved=  13.
 NSaved=13 IEnMin=13 EnMin= -2217.72855894213     IErMin=13 ErrMin= 1.28D-07
 ErrMax= 1.28D-07  0.00D+00 EMaxC= 1.00D-01 BMatC= 3.32D-11 BMatP= 1.27D-10
 IDIUse=1 WtCom= 1.00D+00 WtEn= 0.00D+00
 Coeff-Com:  0.106D-05-0.487D-05-0.438D-07 0.191D-04 0.116D-03 0.550D-03
 Coeff-Com:  0.106D-02-0.963D-03-0.130D-01-0.406D-01-0.184D-01 0.337D+00
 Coeff-Com:  0.734D+00
 Coeff:      0.106D-05-0.487D-05-0.438D-07 0.191D-04 0.116D-03 0.550D-03
 Coeff:      0.106D-02-0.963D-03-0.130D-01-0.406D-01-0.184D-01 0.337D+00
 Coeff:      0.734D+00
 Gap=     0.224 Goal=   None    Shift=    0.000
 RMSDP=2.67D-08 MaxDP=1.16D-06 DE=-2.49D-10 OVMax= 4.22D-06

 Cycle  14  Pass 1  IDiag  1:
 RMSU=  1.49D-08    CP:  9.65D-01  1.07D+00  7.24D-01  7.59D-01  8.27D-01
                    CP:  9.26D-01  9.40D-01  9.91D-01  1.13D+00  1.16D+00
                    CP:  9.69D-01  1.24D+00  9.49D-01
 E= -2217.72855894217     Delta-E=       -0.000000000036 Rises=F Damp=F
 DIIS: error= 5.09D-08 at cycle  14 NSaved=  14.
 NSaved=14 IEnMin=14 EnMin= -2217.72855894217     IErMin=14 ErrMin= 5.09D-08
 ErrMax= 5.09D-08  0.00D+00 EMaxC= 1.00D-01 BMatC= 4.58D-12 BMatP= 3.32D-11
 IDIUse=1 WtCom= 1.00D+00 WtEn= 0.00D+00
 Coeff-Com:  0.775D-06-0.109D-05-0.152D-04-0.479D-04-0.750D-04 0.397D-04
 Coeff-Com:  0.991D-03 0.407D-02 0.206D-02-0.260D-01-0.506D-01-0.260D-01
 Coeff-Com:  0.276D+00 0.819D+00
 Coeff:      0.775D-06-0.109D-05-0.152D-04-0.479D-04-0.750D-04 0.397D-04
 Coeff:      0.991D-03 0.407D-02 0.206D-02-0.260D-01-0.506D-01-0.260D-01
 Coeff:      0.276D+00 0.819D+00
 Gap=     0.224 Goal=   None    Shift=    0.000
 RMSDP=1.17D-08 MaxDP=6.73D-07 DE=-3.64D-11 OVMax= 2.21D-06

 Cycle  15  Pass 1  IDiag  1:
 RMSU=  6.49D-09    CP:  9.65D-01  1.07D+00  7.24D-01  7.59D-01  8.27D-01
                    CP:  9.26D-01  9.40D-01  9.91D-01  1.13D+00  1.16D+00
                    CP:  9.87D-01  1.30D+00  1.15D+00  1.06D+00
 E= -2217.72855894223     Delta-E=       -0.000000000063 Rises=F Damp=F
 DIIS: error= 2.15D-08 at cycle  15 NSaved=  15.
 NSaved=15 IEnMin=15 EnMin= -2217.72855894223     IErMin=15 ErrMin= 2.15D-08
 ErrMax= 2.15D-08  0.00D+00 EMaxC= 1.00D-01 BMatC= 9.46D-13 BMatP= 4.58D-12
 IDIUse=1 WtCom= 1.00D+00 WtEn= 0.00D+00
 Coeff-Com:  0.126D-06 0.328D-06-0.636D-05-0.231D-04-0.497D-04-0.626D-04
 Coeff-Com:  0.255D-03 0.182D-02 0.286D-02-0.512D-02-0.192D-01-0.665D-01
 Coeff-Com:  0.538D-02 0.353D+00 0.727D+00
 Coeff:      0.126D-06 0.328D-06-0.636D-05-0.231D-04-0.497D-04-0.626D-04
 Coeff:      0.255D-03 0.182D-02 0.286D-02-0.512D-02-0.192D-01-0.665D-01
 Coeff:      0.538D-02 0.353D+00 0.727D+00
 Gap=     0.224 Goal=   None    Shift=    0.000
 RMSDP=4.86D-09 MaxDP=2.73D-07 DE=-6.28D-11 OVMax= 8.88D-07

 Error on total polarization charges =  0.04370
 SCF Done:  E(RM062X) =  -2217.72855894     A.U. after   15 cycles
            NFock= 15  Conv=0.49D-08     -V/T= 2.0967
 KE= 2.022165030114D+03 PE=-1.217184162277D+04 EE= 4.414290853730D+03
 SMD-CDS (non-electrostatic) energy       (kcal/mol) =      -7.03
 (included in total energy above)
 Leave Link  502 at Thu May 15 10:12:14 2025, MaxMem=  8321499136 cpu:            3400.6 elap:             108.0
 (Enter /cm/shared/apps/spack/cpu/opt/spack/linux-centos8-zen/gcc-8.3.1/gaussian-16.C.01-po5bqktfeugvmjyga3v7eigbecnokxng/g16/l508.exe)
 QCSCF skips out because SCF is already converged.
 Leave Link  508 at Thu May 15 10:12:14 2025, MaxMem=  8321499136 cpu:               0.4 elap:               0.0
 (Enter /cm/shared/apps/spack/cpu/opt/spack/linux-centos8-zen/gcc-8.3.1/gaussian-16.C.01-po5bqktfeugvmjyga3v7eigbecnokxng/g16/l601.exe)
 Copying SCF densities to generalized density rwf, IOpCl= 0 IROHF=0.

 **********************************************************************

            Population analysis using the SCF Density.

 **********************************************************************

 Alpha  occ. eigenvalues --  -90.11846 -90.11827 -19.64551 -19.64095 -19.64092
 Alpha  occ. eigenvalues --  -19.63912 -14.82935 -10.60882 -10.60673 -10.60555
 Alpha  occ. eigenvalues --  -10.60398 -10.58764 -10.58715 -10.58371 -10.58291
 Alpha  occ. eigenvalues --  -10.58080 -10.58051 -10.57587 -10.57576 -10.57003
 Alpha  occ. eigenvalues --  -10.56959 -10.56904 -10.56854 -10.56812 -10.56781
 Alpha  occ. eigenvalues --  -10.56764 -10.56737  -8.44762  -8.44735  -7.13277
 Alpha  occ. eigenvalues --   -6.37001  -6.36981  -6.36822  -6.36780  -6.36779
 Alpha  occ. eigenvalues --   -6.36751  -5.13143  -5.11325  -5.11296  -2.09941
 Alpha  occ. eigenvalues --   -2.09280  -2.09230  -2.07719  -2.07713  -1.26861
 Alpha  occ. eigenvalues --   -1.25373  -1.14081  -1.13402  -1.04060  -1.00781
 Alpha  occ. eigenvalues --   -0.98768  -0.94666  -0.93728  -0.90570  -0.87180
 Alpha  occ. eigenvalues --   -0.86358  -0.85517  -0.83451  -0.82085  -0.80790
 Alpha  occ. eigenvalues --   -0.78319  -0.75197  -0.72377  -0.72182  -0.70668
 Alpha  occ. eigenvalues --   -0.70222  -0.66615  -0.66309  -0.64402  -0.61703
 Alpha  occ. eigenvalues --   -0.60341  -0.59792  -0.59566  -0.59053  -0.57673
 Alpha  occ. eigenvalues --   -0.56273  -0.55659  -0.54374  -0.54110  -0.53115
 Alpha  occ. eigenvalues --   -0.52774  -0.52171  -0.51490  -0.51058  -0.50040
 Alpha  occ. eigenvalues --   -0.49601  -0.49239  -0.48648  -0.47676  -0.47234
 Alpha  occ. eigenvalues --   -0.46649  -0.46362  -0.45572  -0.43905  -0.43208
 Alpha  occ. eigenvalues --   -0.42849  -0.42606  -0.41924  -0.41358  -0.41245
 Alpha  occ. eigenvalues --   -0.40869  -0.40543  -0.40429  -0.39133  -0.38949
 Alpha  occ. eigenvalues --   -0.38192  -0.36209  -0.35677  -0.32567  -0.32096
 Alpha  occ. eigenvalues --   -0.31714  -0.30981  -0.28609  -0.28162
 Alpha virt. eigenvalues --   -0.05723  -0.04563  -0.03164  -0.01157  -0.00365
 Alpha virt. eigenvalues --    0.03640   0.04640   0.08594   0.08865   0.09971
 Alpha virt. eigenvalues --    0.10452   0.11289   0.11759   0.12088   0.12648
 Alpha virt. eigenvalues --    0.13199   0.13823   0.15047   0.16063   0.16372
 Alpha virt. eigenvalues --    0.17178   0.17252   0.18091   0.18605   0.18630
 Alpha virt. eigenvalues --    0.18836   0.19200   0.19661   0.20646   0.21305
 Alpha virt. eigenvalues --    0.21894   0.22129   0.22537   0.23584   0.24549
 Alpha virt. eigenvalues --    0.24938   0.26164   0.26953   0.27431   0.28605
 Alpha virt. eigenvalues --    0.28713   0.29303   0.29442   0.30627   0.30706
 Alpha virt. eigenvalues --    0.31206   0.31317   0.31770   0.32281   0.32664
 Alpha virt. eigenvalues --    0.33590   0.34012   0.34656   0.34943   0.36489
 Alpha virt. eigenvalues --    0.36896   0.37799   0.38235   0.39195   0.39439
 Alpha virt. eigenvalues --    0.39846   0.40067   0.40770   0.41244   0.42262
 Alpha virt. eigenvalues --    0.42754   0.44488   0.44830   0.45142   0.46292
 Alpha virt. eigenvalues --    0.46967   0.47787   0.48015   0.48713   0.49040
 Alpha virt. eigenvalues --    0.49773   0.50636   0.50976   0.51199   0.51624
 Alpha virt. eigenvalues --    0.52048   0.52359   0.52771   0.53595   0.53915
 Alpha virt. eigenvalues --    0.54230   0.54438   0.55025   0.56240   0.56629
 Alpha virt. eigenvalues --    0.57839   0.58465   0.59226   0.60152   0.61408
 Alpha virt. eigenvalues --    0.62076   0.62584   0.63272   0.64181   0.64496
 Alpha virt. eigenvalues --    0.65033   0.65419   0.65885   0.66661   0.67808
 Alpha virt. eigenvalues --    0.68399   0.69131   0.69824   0.70138   0.70708
[...]
 38,-0.00013949,-0.00011324,-0.00007685,0.00011264,-0.00020738,-0.00032
 432,-0.00002848,0.00000989,0.00005747,0.00024687,-0.00015800,-0.000279
 78,0.00007979,-0.00020314,-0.00018474,0.00010934,-0.00001182,-0.000065
 13,0.00005232,-0.00007262,-0.00009915,0.00002585,-0.00002948,-0.000029
 64,0.00140139,0.00087219,0.00374169,-0.00051366,0.00062125,-0.00069560
 ,-0.00121239,0.00063577,-0.00104096,-0.22315415,-0.51565190,-0.1474710
 1,-0.01734348,-0.01452488,-0.01457778,0.25139307,0.54407091,-0.0000127
 5,-0.00006969,0.00006476,-0.00001591,-0.00002458,0.00006849,-0.0002203
 2,-0.00023339,0.00019076,0.00012320,-0.00012671,0.00002927,0.00001460,
 -0.00000331,0.00002479,0.00004044,-0.00005266,0.00002997,0.00000955,-0
 .00003010,-0.00000367,-0.00004664,0.00003479,-0.00008334,0.00044542,0.
 00023809,0.00008793,-0.00019277,0.00005089,0.00000362,-0.00001377,-0.0
 0003026,0.00000213,-0.00000049,-0.00002066,-0.00000123,-0.00001883,-0.
 00036736,0.00017271,0.00049523,-0.00023388,0.00000312,-0.00001003,-0.0
 0005673,0.00001713,0.00552398,0.00005786,-0.00174959,-0.01118106,-0.01
 919096,0.00075740,-0.00090850,-0.00119217,-0.00076985,0.00033970,-0.00
 091357,-0.00071248,-0.00017524,-0.00036027,-0.00018437,0.00050945,0.00
 030164,-0.00036898,-0.00027010,-0.00014779,0.00038054,-0.00017170,-0.0
 0005335,0.00007219,0.00009724,-0.00024265,-0.00019189,-0.00005310,-0.0
 0000312,0.00001426,0.00009511,-0.00003277,-0.00008364,-0.00003652,-0.0
 0018662,-0.00012530,0.00005505,0.00000865,-0.00005018,0.00005214,-0.00
 006327,-0.00003679,0.00001233,-0.00002574,-0.00003005,-0.00002401,0.00
 906861,0.00792562,0.00016197,-0.00091464,-0.00153944,-0.00348614,-0.00
 182921,-0.00277448,-0.07857908,-0.16427389,-0.14109896,0.01520554,0.03
 122894,0.01462249,0.09363528,0.17362011,0.14332218,0.00007387,-0.00011
 004,0.00006290,-0.00031571,-0.00022592,0.00020650,0.00169303,-0.000053
 69,0.00017953,-0.00015376,0.00012366,0.00004760,0.00026674,0.00003546,
 -0.00006443,0.00006943,-0.00010871,0.00007734,0.00000704,-0.00004612,0
 .00000095,0.00016260,-0.00015697,0.00008336,-0.00368069,-0.00190057,-0
 .00015703,0.00048477,-0.00019508,-0.00005358,-0.00001036,0.00001978,-0
 .00001427,0.00001868,0.00000608,-0.00000246,0.00052855,0.00031701,0.00
 003367,0.00707440,-0.00100575,-0.00009358,-0.00000660,-0.00008410,0.00
 003239,-0.00438393,-0.00327024,-0.00162365,-0.01156151,0.01257621,-0.0
 1139470,0.00047800,0.00047223,0.00219254,0.00031103,0.00382643,0.00043
 534,0.00027417,0.00036403,-0.00015078,-0.00065273,-0.00077899,0.000148
 89,0.00008588,-0.00041782,0.00135651,0.00035790,0.00060614,-0.00002138
 ,-0.00060008,0.00012553,0.00029012,0.00006327,0.00007377,0.00004132,-0
 .00026817,0.00013692,0.00031646,-0.00018419,0.00039131,0.00046079,-0.0
 0012313,-0.00002547,0.00005389,-0.00004735,0.00012485,0.00006454,0.000
 00390,0.00003405,0.00005303,-0.06185570,0.01096078,-0.02347369,0.01177
 653,-0.00338072,0.00164632,-0.02654047,-0.01968732,-0.03341401,-0.0767
 9125,0.00877515,-0.03555022,0.00167242,0.00499790,-0.00227482,-0.01698
 653,-0.00273136,-0.01944270,0.19069795,-0.00015500,-0.00040252,0.00009
 246,-0.00062912,-0.00003187,0.00017446,0.00009340,-0.00001285,0.001729
 61,0.00025303,0.00013017,-0.00029465,0.00047606,-0.00015165,-0.0001114
 2,0.00010513,-0.00034774,0.00021194,0.00005432,-0.00008575,0.00003295,
 -0.00000753,0.00007302,-0.00001353,-0.00298215,0.00056283,-0.00020536,
 -0.00093187,-0.00017778,0.00142642,-0.00006880,-0.00008060,0.00005348,
 0.00002063,-0.00004613,0.00004055,0.00345557,-0.00342469,-0.00032492,-
 0.01004101,-0.01406013,-0.01469379,0.00000810,-0.00036650,0.00034746,-
 0.00107945,0.00088220,0.00015554,0.01508996,0.00318084,0.00695324,0.00
 050777,0.00096305,-0.00043364,0.00024265,-0.00384121,-0.00042639,-0.00
 006178,0.00014757,0.00039219,0.00012564,0.00005511,-0.00003633,0.00094
 420,0.00060462,-0.00098189,0.00002455,-0.00036679,-0.00022265,0.000065
 38,0.00000120,0.00001897,-0.00003423,0.00013320,0.00012306,0.00011040,
 -0.00008689,-0.00034170,0.00024339,0.00005954,-0.00010176,0.00007840,-
 0.00000144,-0.00004653,-0.00000646,-0.00003713,-0.00003105,0.00002378,
 -0.00002054,-0.00002957,-0.00611839,-0.10351084,-0.03791790,-0.0043785
 7,0.00387151,-0.00907445,0.00356599,0.01012756,0.00124653,0.03336538,-
 0.09802065,0.02141347,0.01316446,0.00021394,0.02013981,-0.02751100,0.0
 0172125,-0.02060654,-0.02311386,0.33394824,0.00008757,-0.00004746,0.00
 008652,-0.00014169,-0.00024492,0.00023955,0.00080692,-0.00029100,-0.00
 043492,-0.00009220,-0.00001775,0.00009889,0.00015599,0.00004256,0.0000
 7218,0.00002656,-0.00010198,0.00005644,0.00001019,-0.00004647,-0.00000
 314,0.00004953,-0.00006047,-0.00003327,-0.00072509,-0.00140733,0.00008
 052,-0.00031869,-0.00037067,-0.00038982,-0.00001219,-0.00001838,-0.000
 01777,0.00001056,-0.00001718,-0.00000935,0.00062664,-0.00121569,0.0007
 6441,0.00165560,0.00585189,0.00589172,0.00001255,-0.00019964,0.0000449
 9,-0.00215433,0.00027491,0.00120379,0.00407063,-0.00299307,0.00224201,
 0.00074834,0.00054073,0.00008150,-0.00046781,0.00148618,0.00112827,-0.
 00017441,-0.00031344,-0.00005621,-0.00027191,0.00006746,0.00034059,-0.
 00056337,0.00010540,0.00014490,0.00007617,0.00020102,0.00010689,0.0001
 1100,0.00010473,0.00006999,-0.00001005,0.00010359,-0.00002102,-0.00012
 990,0.00011788,0.00017274,-0.00011216,-0.00000723,0.00008371,-0.000026
 10,0.00000244,-0.00001176,-0.00003287,0.00004562,0.00001169,-0.0000045
 7,0.00001960,0.00000028,-0.01454304,-0.00760720,-0.09074345,-0.0066317
 5,-0.03017266,-0.03444771,-0.02246106,-0.01254439,-0.01140312,-0.03331
 951,-0.00132666,-0.07851248,-0.02120459,0.02341812,-0.01509487,-0.0281
 2423,-0.00259786,-0.01402172,0.13538351,0.00430576,0.25168423,0.000011
 17,-0.00001837,0.00000869,-0.00001684,0.00000977,-0.00003240,-0.000332
 86,-0.00003725,0.00006122,0.00005566,-0.00004503,0.00008953,-0.0000366
 9,0.00000758,-0.00000779,0.00001809,0.00000353,-0.00000139,0.00000053,
 -0.00000351,0.00000149,-0.00000061,0.00000568,-0.00000211,0.00026853,-
 0.00108114,-0.00043009,-0.00005361,0.00004885,-0.00002870,-0.00000132,
 -0.00000854,0.00000621,0.00000098,-0.00000220,0.00000210,-0.00008964,-
 0.00002291,0.00007578,0.00006144,0.00002646,0.00000360,-0.00000294,-0.
 00000086,-0.00000847,-0.00306214,-0.00218988,0.00309686,-0.00173098,-0
 .02014299,-0.01052897,-0.00073192,0.00070100,0.00046752,-0.06925499,-0
 .06559579,-0.02377010,-0.00063543,-0.00045463,0.00558235,0.00001445,-0
 .00007927,-0.00043026,0.00961131,0.01709799,0.00867144,0.00067400,0.00
 047190,-0.00008702,-0.00027490,-0.00004806,0.00018811,0.00001401,0.000
 02258,0.00002717,-0.00044750,0.00095313,-0.00251815,-0.00010302,0.0004
 8832,0.00005389,0.00000926,-0.00006289,0.00005304,0.00001607,-0.000007
 44,0.00001110,0.00003431,0.00007818,0.00005136,-0.00008057,-0.00077967
 ,-0.00032575,-0.00002564,0.00022164,0.00008022,0.00011429,0.00015430,0
 .00008690,-0.00326006,-0.00418185,-0.00263206,0.00078196,0.00081210,-0
 .00022371,0.00136275,0.00215947,0.00062994,0.00027317,0.00044600,0.000
 69713,0.06697639,0.00001334,-0.00000410,-0.00000389,0.00000356,0.00000
 007,0.00000714,-0.00007635,0.00001807,-0.00003062,0.00002068,0.0000019
 9,0.00000978,0.00000241,0.00000494,0.00000119,0.00000347,-0.00000492,-
 0.00000310,0.00000031,-0.00000423,0.00000360,-0.00000124,-0.00000033,0
 .00000005,0.00007915,-0.00009471,-0.00046058,-0.00003933,0.00001650,-0
 .00001126,-0.00000026,-0.00000140,0.00000350,0.00000061,-0.00000144,0.
 00000106,-0.00001698,-0.00001202,0.00004067,-0.00002015,0.00002165,0.0
 0005511,0.00000029,-0.00000317,-0.00000396,-0.00246237,0.00185929,0.00
 012356,-0.00270668,-0.00693338,-0.00509190,0.00055906,0.00005115,0.000
 08337,-0.06557470,-0.28273343,-0.11692150,-0.00039851,0.00251757,-0.00
 375766,0.00004542,0.00006501,0.00039791,-0.00485211,-0.00360444,-0.003
 40684,-0.00030470,-0.00014237,0.00017156,0.00024690,0.00011269,-0.0001
 2380,-0.00000755,0.00001368,-0.00000014,0.00115592,-0.00075416,0.00237
 834,0.00014624,-0.00036404,0.00003318,-0.00002643,0.00004768,-0.000060
 41,-0.00000907,0.00000383,-0.00001984,-0.00003191,-0.00001784,-0.00002
 135,-0.00005128,-0.00022540,-0.00004458,-0.00001175,0.00002508,0.00001
 031,-0.00000197,0.00002652,0.00001180,0.00059497,-0.00236246,-0.000286
 66,-0.00030713,0.00035353,0.00013425,0.00285341,-0.00021062,-0.0013182
 5,0.00027786,0.00002442,0.00005243,0.07089104,0.29228265,-0.00001101,0
 .00001071,-0.00000243,-0.00000872,0.00001313,0.00000042,0.00003855,0.0
 0000753,0.00000657,-0.00000891,-0.00001165,-0.00002008,-0.00000186,-0.
 00000656,0.00000163,-0.00000772,0.00000312,0.00000855,-0.00000013,0.00
 000111,-0.00000420,0.00000402,0.00000735,-0.00000781,0.00004730,0.0001
 9479,0.00059318,0.00004567,-0.00000021,0.00000370,0.00000003,-0.000000
 24,-0.00000317,-0.00000014,0.00000121,-0.00000095,-0.00000257,-0.00000
 725,-0.00003556,0.00008661,-0.00005524,-0.00008445,-0.00000159,0.00000
 111,0.00000396,0.00337958,-0.00101528,0.00162143,0.00213728,0.00752069
 ,0.00608982,-0.00014397,0.00038002,-0.00035545,-0.02540757,-0.11768654
 ,-0.09991729,0.00547869,-0.00358395,0.00330659,-0.00029895,0.00022268,
 -0.00025454,-0.00502630,-0.01703606,-0.00239974,-0.00049717,-0.0005204
 4,-0.00017419,0.00006471,0.00002552,0.00004831,0.00000869,-0.00003444,
 0.00000264,-0.00236282,0.00252483,-0.00237635,-0.00000784,0.00015920,-
 0.00050386,0.00007870,-0.00005083,0.00009255,0.00000905,-0.00002664,0.
 00002451,-0.00001356,-0.00007629,-0.00000817,0.00001469,0.00050724,0.0
 0036360,0.00006598,-0.00004817,-0.00012414,-0.00009409,-0.00008985,-0.
 00011060,0.00118779,0.00223129,-0.00048559,0.00013697,-0.00015703,-0.0
 0022857,0.00089337,-0.00125707,-0.00154556,-0.00084101,-0.00011250,-0.
 00047208,0.02111988,0.12805334,0.09688502,0.00006203,-0.00002599,0.000
 01853,0.00002398,-0.00003037,-0.00003478,0.00037757,-0.00046907,0.0001
 2339,0.00092329,-0.00097942,0.00124086,0.00025415,-0.00000725,0.000022
 41,0.00005871,-0.00003634,-0.00003051,-0.00000002,0.00000845,-0.000000
 38,0.00002181,-0.00001402,0.00001321,-0.00211901,-0.00292046,0.0020596
 7,0.00691147,-0.00338904,0.00140078,-0.00001209,0.00000818,0.00000956,
 0.00002368,-0.00002637,0.00000989,-0.27370223,0.12685702,-0.04530253,-
 0.01594824,0.01167234,-0.00463845,0.00039935,-0.00007825,-0.00044764,-
 0.00046388,0.00080748,-0.00027287,0.00004737,-0.00000784,0.00004575,-0
 .00018296,-0.00019422,-0.00001688,-0.00004978,-0.00005682,0.00006002,0
 .00001489,0.00003096,0.00007390,-0.00000291,-0.00000585,-0.00001728,-0
 .00000942,-0.00005411,-0.00003979,-0.00001186,-0.00001895,-0.00000785,
 0.00000349,0.00001884,0.00000699,0.00000309,-0.00000128,-0.00000233,-0
 .00000356,0.00000260,-0.00000731,0.00000732,0.00000819,0.00000012,-0.0
 0000476,0.00000180,0.00000720,-0.00000331,0.00000273,0.00000404,-0.000
 00047,0.00000149,0.00000220,-0.00470946,0.00191410,-0.00105658,0.00081
 910,-0.00025065,-0.00028328,0.00256081,0.00135176,-0.00092576,-0.00050
 376,0.00040749,-0.00013451,0.00010458,-0.00010980,-0.00003298,0.000130
 49,-0.00003027,0.00005007,0.00054232,-0.00003851,0.00043101,-0.0000147
 8,-0.00000623,0.00000842,0.28443925,-0.00029939,-0.00023519,0.00017797
 ,-0.00012975,0.00025527,-0.00042154,-0.00025533,-0.00090323,0.00016090
 ,-0.00101209,-0.00188631,0.00553414,0.00093500,0.00023196,-0.00021110,
 0.00027750,-0.00050340,-0.00003332,0.00001142,0.00000848,0.00001525,0.
 00002151,-0.00000608,0.00001466,-0.00256000,-0.00002841,0.00224367,0.0
 2267062,-0.00619941,0.00451565,-0.00003505,0.00003136,0.00006979,0.000
 10245,-0.00003135,0.00003391,0.12746163,-0.12568716,0.03347575,-0.0097
 6894,0.00931682,-0.00231032,-0.00033822,0.00002127,-0.00284553,-0.0004
 7507,0.00062501,0.00005833,0.00003834,0.00001155,0.00001229,-0.0001624
 6,-0.00013801,0.00004034,-0.00003209,-0.00004549,0.00002386,0.00000207
 ,0.00002117,0.00007016,-0.00000677,-0.00000138,-0.00002687,-0.00000132
 ,-0.00002654,-0.00002264,-0.00001760,-0.00002021,-0.00000950,-0.000006
 41,0.00000618,0.00001253,0.00000239,-0.00000224,-0.00000298,-0.0000007
 1,-0.00000090,-0.00000526,0.00001098,0.00000502,-0.00000110,-0.0000042
 2,0.00000217,0.00000398,0.00000001,0.00000045,-0.00000038,-0.00000045,
 0.00000060,0.00000114,-0.00414070,-0.00062236,-0.00123202,0.00080175,0
 .00031529,-0.00025618,0.00063043,-0.00281956,0.00130657,-0.00049755,0.
 00044839,-0.00027887,0.00009593,-0.00013334,0.00004031,0.00017639,-0.0
 0001200,0.00010081,0.00079444,-0.00007532,0.00068849,-0.00001090,-0.00
 000398,0.00000552,-0.13422073,0.12827912,0.00000789,-0.00000429,0.0000
 6866,-0.00009096,-0.00026148,-0.00042542,0.00000004,-0.00033967,-0.000
 52893,0.00119718,0.00534572,0.00612903,-0.00054272,0.00001648,-0.00013
 234,0.00005488,-0.00010114,-0.00055303,-0.00000644,0.00001866,0.000035
 98,-0.00001668,0.00002827,0.00001360,0.00160476,0.00320621,0.00251674,
 -0.01163872,0.00693987,0.00326966,0.00002334,0.00007535,0.00013101,-0.
 00004515,0.00004173,0.00002550,-0.04674596,0.03299621,-0.05259286,0.00
 750709,-0.00415167,0.00423313,-0.00029338,-0.00282305,-0.00402635,0.00
 024785,-0.00021491,0.00064651,0.00002470,0.00012799,-0.00010566,0.0000
 1492,0.00002283,0.00003118,-0.00001358,0.00001235,-0.00003541,-0.00001
 720,0.00001492,-0.00000987,0.00000199,-0.00002071,-0.00000792,0.000036
 31,0.00003194,0.00000993,-0.00000772,-0.00000098,-0.00000009,-0.000005
 26,-0.00001537,-0.00000391,0.00000909,0.00000031,-0.00000927,0.0000002
 5,-0.00000369,0.00000293,0.00000020,-0.00000825,0.00000652,-0.00000071
 ,0.00000153,-0.00000324,0.00000056,0.00000037,-0.00000527,0.00000094,-
 0.00000075,-0.00000123,0.00240767,-0.00111682,-0.00115602,-0.00002998,
 0.00043061,-0.00025029,-0.00091746,0.00139979,-0.00099246,0.00023755,-
 0.00041080,0.00027727,0.00005072,0.00009543,-0.00006379,-0.00010743,0.
 00004374,-0.00010071,-0.00052672,-0.00046660,-0.00030561,0.00000925,0.
 00000390,-0.00000095,0.04764142,-0.04093903,0.04395140,-0.00006153,-0.
 00008426,0.00002906,-0.00012503,0.00004747,0.00001411,0.00003423,-0.00
 022370,0.00015927,0.00012688,-0.00001778,-0.00000734,0.00005501,0.0000
 0907,-0.00001830,0.00004853,-0.00004914,0.00002844,0.00000643,-0.00000
 918,0.00000143,0.00000612,0.00000140,0.00000560,-0.00045303,0.00030719
 ,-0.00034752,-0.00001181,0.00007125,0.00013879,-0.00000753,-0.00000940
 ,0.00000704,0.00000349,-0.00000241,0.00000501,0.00019782,-0.00023768,0
 .00008899,-0.00025621,-0.00122035,-0.00103873,-0.00000884,-0.00003954,
 0.00000193,-0.00030840,-0.00006174,0.00028146,-0.00171355,-0.00078871,
 -0.00105646,0.00031724,-0.00018123,-0.00008988,0.00028492,0.00018332,0
 .00002621,-0.00011945,-0.00031414,-0.00016864,-0.00000990,0.00010485,0
 .00006757,-0.00021936,0.00018109,0.00046948,-0.00005585,0.00013340,0.0
 0008558,0.00010549,-0.00000710,-0.00008213,-0.00000292,0.00001173,0.00
 001520,0.00000713,0.00000846,0.00005820,-0.00010554,-0.00010999,-0.000
 01231,0.00000382,-0.00000027,-0.00000149,0.00000289,-0.00000216,0.0000
 0065,0.00000313,-0.00000386,-0.00000133,0.00495909,-0.00340254,0.00470
 728,-0.00069634,-0.00026797,-0.00039759,-0.00218383,-0.00179036,-0.000
 64264,-0.00313059,0.01509083,-0.00318236,0.00114900,0.00006231,-0.0007
 4775,-0.00294782,0.00332117,-0.00263658,-0.01275347,0.00469355,-0.0134
 3839,-0.00014192,0.00001207,-0.00007004,0.00001370,-0.00005709,-0.0000
 7251,0.01798799,-0.00000567,0.00005769,-0.00005522,0.00003155,0.000043
 38,-0.00000242,0.00005427,0.00017913,0.00026536,-0.00018795,0.00019731
 ,-0.00011298,0.00006423,-0.00017673,0.00003755,-0.00012979,0.00002571,
 -0.00000909,-0.00000328,0.00000624,-0.00000579,0.00002281,-0.00002060,
 0.00002050,-0.00048418,-0.00014422,-0.00026132,0.00011262,-0.00021412,
 0.00027764,0.00000476,0.00000853,-0.00000684,-0.00000112,0.00001478,0.
 ,0.00023156,-0.00001026,-0.00051546,-0.00047124,0.00034481,-0.00102910
 ,0.00002407,0.00004439,0.00005242,-0.00019925,-0.00100532,-0.00056079,
 -0.00121130,0.00198126,-0.00016700,-0.00022132,0.00028238,0.00029941,0
 .00000415,0.00066485,0.00012459,0.00014594,0.00026086,0.00010313,-0.00
 011274,-0.00020226,-0.00002998,0.00012153,-0.00022590,-0.00010810,0.00
 011566,0.00000629,-0.00006732,-0.00017709,0.00002794,0.00012509,0.0000
 0906,-0.00000908,-0.00000425,-0.00008243,0.00004221,0.00001635,0.00005
 262,0.00014786,0.00008592,-0.00002915,-0.00000369,0.00001428,-0.000007
 01,0.00002165,0.00001126,-0.00000563,0.00001366,0.00001173,-0.00659471
 ,-0.03454618,-0.00398454,0.00034056,0.00372087,0.00243633,0.00201049,-
 0.00087418,0.00128746,0.01277382,-0.01871941,0.01443644,-0.00096063,0.
 00186143,-0.00164418,-0.00218182,-0.00121322,-0.00210625,0.01225311,-0
 .13155126,0.02417265,0.00017364,0.00003211,-0.00009417,-0.00012159,-0.
 00019825,0.00002498,-0.01535853,0.17912932,0.00000679,-0.00000321,-0.0
 0000017,-0.00001270,-0.00003328,0.00001211,-0.00000885,0.00002559,0.00
 005295,-0.00004889,0.00002247,-0.00002759,0.00004635,-0.00003506,-0.00
 000205,-0.00002126,-0.00002525,0.00001559,0.00000431,-0.00000472,0.000
 00333,-0.00000014,0.00000383,-0.00000534,-0.00017034,0.00004037,0.0002
 0698,-0.00004269,-0.00006370,0.00014466,-0.00000482,-0.00000424,0.0000
 0473,0.00000128,-0.00000360,0.00000305,0.00027688,-0.00032014,-0.00005
 436,-0.00094654,-0.00082060,-0.00042894,0.00000296,-0.00002740,0.00003
 719,0.00010729,0.00011073,-0.00019903,0.00049624,-0.00087999,0.0003969
 4,-0.00005396,0.00007005,-0.00005154,-0.00012303,0.00002252,0.00009871
 ,0.00002961,0.00003396,0.00002545,0.00002301,-0.00001551,-0.00001745,-
 0.00001614,-0.00005519,-0.00013576,-0.00000145,-0.00003458,-0.00001477
 ,-0.00000724,-0.00000672,-0.00000452,-0.00000209,0.00000689,0.00001218
 ,0.00001088,-0.00000145,-0.00000332,0.00001854,0.00000633,-0.00001191,
 0.00000809,-0.00000043,-0.00000176,0.00000120,-0.00000518,-0.00000221,
 0.00000342,-0.00000385,-0.00000163,0.00160437,-0.00737411,0.00554801,0
 .00025897,-0.00070922,-0.00187645,-0.00112659,-0.00172100,-0.00098161,
 0.00052802,0.01396519,-0.00293339,-0.00133632,0.00094269,-0.00301108,-
 0.00323179,0.00233993,-0.00231713,-0.01406846,0.02761525,-0.01862752,-
 0.00004784,-0.00000971,0.00006325,0.00002226,-0.00000939,-0.00003843,0
 .01782069,-0.03303830,0.02412282\\0.00000497,0.00000311,0.00000003,0.0
 0000395,-0.00000269,0.00000315,0.00000108,-0.00000122,-0.00000056,-0.0
 0000005,-0.00000078,-0.00000101,0.00000556,-0.00000298,0.00000185,0.00
 000024,0.00000046,0.00000115,0.00000280,0.00000185,0.00000248,0.000000
 44,0.00000254,0.00000089,-0.00000293,-0.00000518,0.00000687,0.00000347
 ,-0.00000484,-0.00000097,0.00000294,-0.00000256,0.00000061,0.00000434,
 0.00000031,0.00000192,0.00000117,-0.00000763,0.00000069,-0.00000072,0.
 00000451,0.00000958,0.00000072,-0.00000400,-0.00000146,0.00000306,0.00
 000292,-0.00000106,-0.00000488,-0.00000282,-0.00000235,-0.00000060,0.0
 0000126,-0.00000086,-0.00000039,0.00000638,0.00000153,0.00000102,0.000
 00215,0.00000140,0.00000156,-0.00000031,0.00000175,-0.00000310,0.00000
 227,-0.00000113,0.00000115,0.00000272,0.00000146,0.00000330,0.00000111
 ,0.00000080,0.00000218,-0.00000047,0.00000097,-0.00000193,0.00000358,0
 .00000133,0.00000170,0.00000247,0.00000160,0.00000011,0.00000371,0.000
 00103,0.00000443,0.00000014,0.00000183,0.00000316,0.00000242,0.0000019
 6,0.00000326,-0.00000232,0.00001632,0.00000867,0.00001138,-0.00000665,
 -0.00000627,0.00001530,0.00000088,0.00001429,-0.00000784,0.00001120,-0
 .00000594,0.00000604,-0.00000868,-0.00000960,0.00000068,-0.00000251,-0
 .00003304,-0.00002607,-0.00004103,-0.00000408,0.00000129,-0.00000202,0
 .00000010,-0.00000607,-0.00000134,-0.00000613,-0.00000081,-0.00000165\
 \\@
 The archive entry for this job was punched.


 WHERE THERE IS MUCH DESIRE TO LEARN, THERE OF NECESSITY WILL BE
 MUCH ARGUING, MUCH WRITING, MANY OPINIONS; FOR OPINION IN GOOD MEN
 IS BUT KNOWLEDGE IN THE MAKING. -- JOHN MILTON.
 Job cpu time:       0 days  8 hours 30 minutes 15.4 seconds.
 Elapsed time:       0 days  0 hours 16 minutes  5.6 seconds.
 File lengths (MBytes):  RWF=   1531 Int=      0 D2E=      0 Chk=     39 Scr=      1
 Normal termination of Gaussian 16 at Thu May 15 10:54:58 2025.
