 Entering Gaussian System, Link 0=g16
 Initial command:
 /opt/packages/gaussian/g16RevC.01/g16/l1.exe "/local/Gau-48884.inp" -scrdir="/local/"
 Entering Link 1 = /opt/packages/gaussian/g16RevC.01/g16/l1.exe PID=     48885.
  
 Copyright (c) 1988-2019, Gaussian, Inc.  All Rights Reserved.
  
 This is part of the Gaussian(R) 16 program.  It is based on
 the Gaussian(R) 09 system (copyright 2009, Gaussian, Inc.),
 the Gaussian(R) 03 system (copyright 2003, Gaussian, Inc.),
 the Gaussian(R) 98 system (copyright 1998, Gaussian, Inc.),
 the Gaussian(R) 94 system (copyright 1995, Gaussian, Inc.),
 the Gaussian 92(TM) system (copyright 1992, Gaussian, Inc.),
 the Gaussian 90(TM) system (copyright 1990, Gaussian, Inc.),
 the Gaussian 88(TM) system (copyright 1988, Gaussian, Inc.),
 the Gaussian 86(TM) system (copyright 1986, Carnegie Mellon
 University), and the Gaussian 82(TM) system (copyright 1983,
 Carnegie Mellon University). Gaussian is a federally registered
 trademark of Gaussian, Inc.
  
 This software contains proprietary and confidential information,
 including trade secrets, belonging to Gaussian, Inc.
  
 This software is provided under written license and may be
 used, copied, transmitted, or stored only in accord with that
 written license.
  
 The following legend is applicable only to US Government
 contracts under FAR:
  
                    RESTRICTED RIGHTS LEGEND
  
 Use, reproduction and disclosure by the US Government is
 subject to restrictions as set forth in subparagraphs (a)
 and (c) of the Commercial Computer Software - Restricted
 Rights clause in FAR 52.227-19.
  
 Gaussian, Inc.
 340 Quinnipiac St., Bldg. 40, Wallingford CT 06492
  
  
 ---------------------------------------------------------------
 Warning -- This program may not be used in any manner that
 competes with the business of Gaussian, Inc. or will provide
 assistance to any competitor of Gaussian, Inc.  The licensee
 of this program is prohibited from giving any competitor of
 Gaussian, Inc. access to this program.  By using this program,
 the user acknowledges that Gaussian, Inc. is engaged in the
 business of creating and licensing software in the field of
 computational chemistry and represents and warrants to the
 licensee that it is not a competitor of Gaussian, Inc. and that
 it will not use this program in any manner prohibited above.
 ---------------------------------------------------------------
  

 Cite this work as:
 Gaussian 16, Revision C.01,
 M. J. Frisch, G. W. Trucks, H. B. Schlegel, G. E. Scuseria, 
 M. A. Robb, J. R. Cheeseman, G. Scalmani, V. Barone, 
 G. A. Petersson, H. Nakatsuji, X. Li, M. Caricato, A. V. Marenich, 
 J. Bloino, B. G. Janesko, R. Gomperts, B. Mennucci, H. P. Hratchian, 
 J. V. Ortiz, A. F. Izmaylov, J. L. Sonnenberg, D. Williams-Young, 
 F. Ding, F. Lipparini, F. Egidi, J. Goings, B. Peng, A. Petrone, 
 T. Henderson, D. Ranasinghe, V. G. Zakrzewski, J. Gao, N. Rega, 
 G. Zheng, W. Liang, M. Hada, M. Ehara, K. Toyota, R. Fukuda, 
 J. Hasegawa, M. Ishida, T. Nakajima, Y. Honda, O. Kitao, H. Nakai, 
 T. Vreven, K. Throssell, J. A. Montgomery, Jr., J. E. Peralta, 
 F. Ogliaro, M. J. Bearpark, J. J. Heyd, E. N. Brothers, K. N. Kudin, 
 V. N. Staroverov, T. A. Keith, R. Kobayashi, J. Normand, 
 K. Raghavachari, A. P. Rendell, J. C. Burant, S. S. Iyengar, 
 J. Tomasi, M. Cossi, J. M. Millam, M. Klene, C. Adamo, R. Cammi, 
 J. W. Ochterski, R. L. Martin, K. Morokuma, O. Farkas, 
 J. B. Foresman, and D. J. Fox, Gaussian, Inc., Wallingford CT, 2019.
 
 ******************************************
 Gaussian 16:  ES64L-G16RevC.01  3-Jul-2019
                11-Jun-2024 
 ******************************************
 %nprocshared=32
 Will use up to   32 processors via shared memory.
 %mem=64GB
 ----------------------------------------------------------------------
 #p m062x genecp opt freq nosymm scrf=(smd,solvent=propylethanoate) emp
 iricaldispersion=gd3 scf=(xqc,maxcycles=128)
 ----------------------------------------------------------------------
 1/18=20,19=15,26=3,38=1/1,3;
 2/9=110,12=2,15=1,17=6,18=5,40=1/2;
 3/5=7,11=2,16=1,17=8,25=1,30=1,70=32201,71=1,72=169,74=-55,124=31/1,2,3;
 4//1;
 5/5=2,7=128,8=3,13=1,38=5,53=169/2,8;
 6/7=2,8=2,9=2,10=2,28=1/1;
 7/30=1/1,2,3,16;
 1/18=20,19=15,26=3/3(2);
 2/9=110,15=1/2;
 99//99;
 2/9=110,15=1/2;
 3/5=7,6=1,11=2,16=1,17=8,25=1,30=1,70=32205,71=1,72=169,74=-55,82=7,124=31/1,2,3;
 4/5=5,16=3,69=1/1;
 5/5=2,7=128,8=3,13=1,38=5,53=169/2,8;
 7/30=1/1,2,3,16;
 1/18=20,19=15,26=3/3(-5);
 2/9=110,15=1/2;
 6/7=2,8=2,9=2,10=2,19=2,28=1/1;
 99/9=1/99;
 Leave Link    1 at Tue Jun 11 17:30:34 2024, MaxMem=  8589934592 cpu:               1.3 elap:               0.1
 (Enter /opt/packages/gaussian/g16RevC.01/g16/l101.exe)
 -------------------
 Title Card Required
 -------------------
 Symbolic Z-matrix:
 Charge =  0 Multiplicity = 1
 C                     1.82974  -1.6358   -0.35607 
 C                     0.49817  -1.75597  -0.74089 
 C                    -0.37873  -2.45704   0.10479 
 C                     0.12496  -3.02005   1.26781 
 C                     1.50522  -2.87638   1.56704 
 N                     2.3057   -2.16337   0.77455 
 H                    -0.54491  -3.57885   1.91855 
 C                     2.82258  -0.90901  -1.20561 
 C                     4.12733  -1.40047  -1.44493 
 C                     5.0309   -0.62896  -2.18779 
 C                     3.38902   1.10924  -2.48347 
 C                     4.66962   0.61324  -2.70395 
 H                     6.02895  -1.02676  -2.37847 
 H                     5.38676   1.19515  -3.2846 
 H                     3.06285   2.07894  -2.86069 
 C                     2.50107   0.34106  -1.74408 
 C                     4.58132  -2.73232  -0.95057 
 C                     5.78877  -2.8418   -0.24997 
 C                     3.8342   -3.89356  -1.19335 
 C                     6.22882  -4.08002   0.22124 
 H                     6.37615  -1.94309  -0.04952 
 C                     4.27316  -5.12891  -0.72518 
 H                     2.89545  -3.82225  -1.74745 
 C                     5.4708   -5.22649  -0.01159 
 H                     7.16629  -4.14552   0.77671 
 H                     3.67846  -6.02313  -0.92041 
 H                     5.81177  -6.19533   0.35794 
 F                     1.28349   0.85252  -1.51702 
 C                    -1.8301   -2.59263  -0.26264 
 H                    -2.30068  -1.60115  -0.34011 
 H                    -1.9364   -3.07892  -1.24364 
 H                    -2.38171  -3.18244   0.48058 
 C                     1.32755  -3.93094   3.80516 
 C                     3.49746  -3.23252   2.94584 
 C                     2.04143  -5.08549   4.49316 
 H                     0.33262  -4.27566   3.50357 
 H                     1.19931  -3.09871   4.52466 
 C                     4.09782  -4.42464   3.66901 
 H                     4.03395  -3.05824   2.00645 
 H                     3.60249  -2.32534   3.5727 
 H                     2.02776  -5.96763   3.82327 
 H                     1.51911  -5.34595   5.42374 
 H                     4.12501  -5.29151   2.97985 
 H                     5.12577  -4.1958    3.98176 
 N                     2.09391  -3.48742   2.65317 
 O                     3.36495  -4.75423   4.82576 
 H                     0.14054  -1.31206  -1.66994 
 
 ITRead=  0  0  0  0  0  0  0  0  0  0  0  0  0  0  0  0  0  0  0  0
 ITRead=  0  0  0  0  0  0  0  0  0  0  0  0  0  0  0  0  0  0  0  0
 ITRead=  0  0  0  0  0  0  0
 MicOpt= -1 -1 -1 -1 -1 -1 -1 -1 -1 -1 -1 -1 -1 -1 -1 -1 -1 -1 -1 -1
 MicOpt= -1 -1 -1 -1 -1 -1 -1 -1 -1 -1 -1 -1 -1 -1 -1 -1 -1 -1 -1 -1
 MicOpt= -1 -1 -1 -1 -1 -1 -1
 NAtoms=     47 NQM=       47 NQMF=       0 NMMI=      0 NMMIF=      0
                NMic=       0 NMicF=      0.
                    Isotopes and Nuclear Properties:
 (Nuclear quadrupole moments (NQMom) in fm**2, nuclear magnetic moments (NMagM)
  in nuclear magnetons)

  Atom         1           2           3           4           5           6           7           8           9          10
 IAtWgt=          12          12          12          12          12          14           1          12          12          12
 AtmWgt=  12.0000000  12.0000000  12.0000000  12.0000000  12.0000000  14.0030740   1.0078250  12.0000000  12.0000000  12.0000000
 NucSpn=           0           0           0           0           0           2           1           0           0           0
 AtZEff=   0.0000000   0.0000000   0.0000000   0.0000000   0.0000000   0.0000000   0.0000000   0.0000000   0.0000000   0.0000000
 NQMom=    0.0000000   0.0000000   0.0000000   0.0000000   0.0000000   2.0440000   0.0000000   0.0000000   0.0000000   0.0000000
 NMagM=    0.0000000   0.0000000   0.0000000   0.0000000   0.0000000   0.4037610   2.7928460   0.0000000   0.0000000   0.0000000
 AtZNuc=   6.0000000   6.0000000   6.0000000   6.0000000   6.0000000   7.0000000   1.0000000   6.0000000   6.0000000   6.0000000

  Atom        11          12          13          14          15          16          17          18          19          20
 IAtWgt=          12          12           1           1           1          12          12          12          12          12
 AtmWgt=  12.0000000  12.0000000   1.0078250   1.0078250   1.0078250  12.0000000  12.0000000  12.0000000  12.0000000  12.0000000
 NucSpn=           0           0           1           1           1           0           0           0           0           0
 AtZEff=   0.0000000   0.0000000   0.0000000   0.0000000   0.0000000   0.0000000   0.0000000   0.0000000   0.0000000   0.0000000
 NQMom=    0.0000000   0.0000000   0.0000000   0.0000000   0.0000000   0.0000000   0.0000000   0.0000000   0.0000000   0.0000000
 NMagM=    0.0000000   0.0000000   2.7928460   2.7928460   2.7928460   0.0000000   0.0000000   0.0000000   0.0000000   0.0000000
 AtZNuc=   6.0000000   6.0000000   1.0000000   1.0000000   1.0000000   6.0000000   6.0000000   6.0000000   6.0000000   6.0000000

  Atom        21          22          23          24          25          26          27          28          29          30
 IAtWgt=           1          12           1          12           1           1           1          19          12           1
 AtmWgt=   1.0078250  12.0000000   1.0078250  12.0000000   1.0078250   1.0078250   1.0078250  18.9984032  12.0000000   1.0078250
 NucSpn=           1           0           1           0           1           1           1           1           0           1
 AtZEff=   0.0000000   0.0000000   0.0000000   0.0000000   0.0000000   0.0000000   0.0000000   0.0000000   0.0000000   0.0000000
 NQMom=    0.0000000   0.0000000   0.0000000   0.0000000   0.0000000   0.0000000   0.0000000   0.0000000   0.0000000   0.0000000
 NMagM=    2.7928460   0.0000000   2.7928460   0.0000000   2.7928460   2.7928460   2.7928460   2.6288670   0.0000000   2.7928460
 AtZNuc=   1.0000000   6.0000000   1.0000000   6.0000000   1.0000000   1.0000000   1.0000000   9.0000000   6.0000000   1.0000000

  Atom        31          32          33          34          35          36          37          38          39          40
 IAtWgt=           1           1          12          12          12           1           1          12           1           1
 AtmWgt=   1.0078250   1.0078250  12.0000000  12.0000000  12.0000000   1.0078250   1.0078250  12.0000000   1.0078250   1.0078250
 NucSpn=           1           1           0           0           0           1           1           0           1           1
 AtZEff=   0.0000000   0.0000000   0.0000000   0.0000000   0.0000000   0.0000000   0.0000000   0.0000000   0.0000000   0.0000000
 NQMom=    0.0000000   0.0000000   0.0000000   0.0000000   0.0000000   0.0000000   0.0000000   0.0000000   0.0000000   0.0000000
 NMagM=    2.7928460   2.7928460   0.0000000   0.0000000   0.0000000   2.7928460   2.7928460   0.0000000   2.7928460   2.7928460
 AtZNuc=   1.0000000   1.0000000   6.0000000   6.0000000   6.0000000   1.0000000   1.0000000   6.0000000   1.0000000   1.0000000

  Atom        41          42          43          44          45          46          47
 IAtWgt=           1           1           1           1          14          16           1
 AtmWgt=   1.0078250   1.0078250   1.0078250   1.0078250  14.0030740  15.9949146   1.0078250
 NucSpn=           1           1           1           1           2           0           1
 AtZEff=   0.0000000   0.0000000   0.0000000   0.0000000   0.0000000   0.0000000   0.0000000
 NQMom=    0.0000000   0.0000000   0.0000000   0.0000000   2.0440000   0.0000000   0.0000000
 NMagM=    2.7928460   2.7928460   2.7928460   2.7928460   0.4037610   0.0000000   2.7928460
 AtZNuc=   1.0000000   1.0000000   1.0000000   1.0000000   7.0000000   8.0000000   1.0000000
 Leave Link  101 at Tue Jun 11 17:30:34 2024, MaxMem=  8589934592 cpu:               6.6 elap:               0.2
 (Enter /opt/packages/gaussian/g16RevC.01/g16/l103.exe)

 GradGradGradGradGradGradGradGradGradGradGradGradGradGradGradGradGradGrad
 Berny optimization.
 Initialization pass.
                           ----------------------------
                           !    Initial Parameters    !
                           ! (Angstroms and Degrees)  !
 --------------------------                            --------------------------
 ! Name  Definition              Value          Derivative Info.                !
 --------------------------------------------------------------------------------
 ! R1    R(1,2)                  1.3913         estimate D2E/DX2                !
 ! R2    R(1,6)                  1.3354         estimate D2E/DX2                !
 ! R3    R(1,8)                  1.4952         estimate D2E/DX2                !
 ! R4    R(2,3)                  1.4056         estimate D2E/DX2                !
 ! R5    R(2,47)                 1.09           estimate D2E/DX2                !
 ! R6    R(3,4)                  1.3868         estimate D2E/DX2                !
 ! R7    R(3,29)                 1.5033         estimate D2E/DX2                !
 ! R8    R(4,5)                  1.4196         estimate D2E/DX2                !
 ! R9    R(4,7)                  1.0883         estimate D2E/DX2                !
 ! R10   R(5,6)                  1.3331         estimate D2E/DX2                !
 ! R11   R(5,45)                 1.3783         estimate D2E/DX2                !
 ! R12   R(8,9)                  1.4146         estimate D2E/DX2                !
 ! R13   R(8,16)                 1.3986         estimate D2E/DX2                !
 ! R14   R(9,10)                 1.4013         estimate D2E/DX2                !
 ! R15   R(9,17)                 1.4914         estimate D2E/DX2                !
 ! R16   R(10,12)                1.3928         estimate D2E/DX2                !
 ! R17   R(10,13)                1.0912         estimate D2E/DX2                !
 ! R18   R(11,12)                1.3909         estimate D2E/DX2                !
 ! R19   R(11,15)                1.0904         estimate D2E/DX2                !
 ! R20   R(11,16)                1.3875         estimate D2E/DX2                !
 ! R21   R(12,14)                1.0909         estimate D2E/DX2                !
 ! R22   R(16,28)                1.34           estimate D2E/DX2                !
 ! R23   R(17,18)                1.4003         estimate D2E/DX2                !
 ! R24   R(17,19)                1.402          estimate D2E/DX2                !
 ! R25   R(18,20)                1.396          estimate D2E/DX2                !
 ! R26   R(18,21)                1.0922         estimate D2E/DX2                !
 ! R27   R(19,22)                1.3921         estimate D2E/DX2                !
 ! R28   R(19,23)                1.0924         estimate D2E/DX2                !
 ! R29   R(20,24)                1.394          estimate D2E/DX2                !
 ! R30   R(20,25)                1.0916         estimate D2E/DX2                !
 ! R31   R(22,24)                1.3975         estimate D2E/DX2                !
 ! R32   R(22,26)                1.0915         estimate D2E/DX2                !
 ! R33   R(24,27)                1.0915         estimate D2E/DX2                !
 ! R34   R(29,30)                1.1002         estimate D2E/DX2                !
 ! R35   R(29,31)                1.1001         estimate D2E/DX2                !
 ! R36   R(29,32)                1.0975         estimate D2E/DX2                !
 ! R37   R(33,35)                1.5218         estimate D2E/DX2                !
 ! R38   R(33,36)                1.0953         estimate D2E/DX2                !
 ! R39   R(33,37)                1.1076         estimate D2E/DX2                !
 ! R40   R(33,45)                1.453          estimate D2E/DX2                !
 ! R41   R(34,38)                1.5181         estimate D2E/DX2                !
 ! R42   R(34,39)                1.0957         estimate D2E/DX2                !
 ! R43   R(34,40)                1.1077         estimate D2E/DX2                !
 ! R44   R(34,45)                1.4562         estimate D2E/DX2                !
 ! R45   R(35,41)                1.1077         estimate D2E/DX2                !
 ! R46   R(35,42)                1.0985         estimate D2E/DX2                !
 ! R47   R(35,46)                1.4043         estimate D2E/DX2                !
 ! R48   R(38,43)                1.1078         estimate D2E/DX2                !
 ! R49   R(38,44)                1.0986         estimate D2E/DX2                !
 ! R50   R(38,46)                1.4085         estimate D2E/DX2                !
 ! A1    A(2,1,6)              122.7659         estimate D2E/DX2                !
 ! A2    A(2,1,8)              121.356          estimate D2E/DX2                !
 ! A3    A(6,1,8)              115.8757         estimate D2E/DX2                !
 ! A4    A(1,2,3)              118.2795         estimate D2E/DX2                !
 ! A5    A(1,2,47)             120.9711         estimate D2E/DX2                !
 ! A6    A(3,2,47)             120.7478         estimate D2E/DX2                !
 ! A7    A(2,3,4)              118.7158         estimate D2E/DX2                !
 ! A8    A(2,3,29)             120.0175         estimate D2E/DX2                !
 ! A9    A(4,3,29)             121.2655         estimate D2E/DX2                !
 ! A10   A(3,4,5)              119.2624         estimate D2E/DX2                !
 ! A11   A(3,4,7)              119.1002         estimate D2E/DX2                !
 ! A12   A(5,4,7)              121.6255         estimate D2E/DX2                !
 ! A13   A(4,5,6)              120.8399         estimate D2E/DX2                !
 ! A14   A(4,5,45)             122.4476         estimate D2E/DX2                !
 ! A15   A(6,5,45)             116.6863         estimate D2E/DX2                !
 ! A16   A(1,6,5)              120.0396         estimate D2E/DX2                !
 ! A17   A(1,8,9)              122.6626         estimate D2E/DX2                !
 ! A18   A(1,8,16)             120.038          estimate D2E/DX2                !
 ! A19   A(9,8,16)             117.2203         estimate D2E/DX2                !
 ! A20   A(8,9,10)             119.5482         estimate D2E/DX2                !
 ! A21   A(8,9,17)             122.3385         estimate D2E/DX2                !
 ! A22   A(10,9,17)            118.1067         estimate D2E/DX2                !
 ! A23   A(9,10,12)            121.3482         estimate D2E/DX2                !
 ! A24   A(9,10,13)            118.7971         estimate D2E/DX2                !
 ! A25   A(12,10,13)           119.8421         estimate D2E/DX2                !
 ! A26   A(12,11,15)           122.527          estimate D2E/DX2                !
 ! A27   A(12,11,16)           118.4407         estimate D2E/DX2                !
 ! A28   A(15,11,16)           119.0296         estimate D2E/DX2                !
 ! A29   A(10,12,11)           119.8751         estimate D2E/DX2                !
 ! A30   A(10,12,14)           120.163          estimate D2E/DX2                !
 ! A31   A(11,12,14)           119.9611         estimate D2E/DX2                !
 ! A32   A(8,16,11)            123.5661         estimate D2E/DX2                !
 ! A33   A(8,16,28)            118.9989         estimate D2E/DX2                !
 ! A34   A(11,16,28)           117.417          estimate D2E/DX2                !
 ! A35   A(9,17,18)            119.8776         estimate D2E/DX2                !
 ! A36   A(9,17,19)            121.335          estimate D2E/DX2                !
 ! A37   A(18,17,19)           118.7768         estimate D2E/DX2                !
 ! A38   A(17,18,20)           120.6661         estimate D2E/DX2                !
 ! A39   A(17,18,21)           119.4216         estimate D2E/DX2                !
 ! A40   A(20,18,21)           119.8927         estimate D2E/DX2                !
 ! A41   A(17,19,22)           120.5795         estimate D2E/DX2                !
 ! A42   A(17,19,23)           119.4526         estimate D2E/DX2                !
 ! A43   A(22,19,23)           119.9656         estimate D2E/DX2                !
 ! A44   A(18,20,24)           120.1121         estimate D2E/DX2                !
 ! A45   A(18,20,25)           119.7132         estimate D2E/DX2                !
 ! A46   A(24,20,25)           120.1739         estimate D2E/DX2                !
 ! A47   A(19,22,24)           120.2587         estimate D2E/DX2                !
 ! A48   A(19,22,26)           119.6724         estimate D2E/DX2                !
 ! A49   A(24,22,26)           120.0687         estimate D2E/DX2                !
 ! A50   A(20,24,22)           119.5946         estimate D2E/DX2                !
 ! A51   A(20,24,27)           120.237          estimate D2E/DX2                !
 ! A52   A(22,24,27)           120.168          estimate D2E/DX2                !
 ! A53   A(3,29,30)            110.4185         estimate D2E/DX2                !
 ! A54   A(3,29,31)            110.556          estimate D2E/DX2                !
 ! A55   A(3,29,32)            111.6049         estimate D2E/DX2                !
 ! A56   A(30,29,31)           107.1123         estimate D2E/DX2                !
 ! A57   A(30,29,32)           108.4823         estimate D2E/DX2                !
 ! A58   A(31,29,32)           108.5274         estimate D2E/DX2                !
 ! A59   A(35,33,36)           108.1692         estimate D2E/DX2                !
 ! A60   A(35,33,37)           109.3098         estimate D2E/DX2                !
 ! A61   A(35,33,45)           110.0354         estimate D2E/DX2                !
 ! A62   A(36,33,37)           108.0701         estimate D2E/DX2                !
 ! A63   A(36,33,45)           110.9086         estimate D2E/DX2                !
 ! A64   A(37,33,45)           110.2891         estimate D2E/DX2                !
 ! A65   A(38,34,39)           109.8564         estimate D2E/DX2                !
 ! A66   A(38,34,40)           109.6362         estimate D2E/DX2                !
 ! A67   A(38,34,45)           109.8434         estimate D2E/DX2                !
 ! A68   A(39,34,40)           107.9681         estimate D2E/DX2                !
 ! A69   A(39,34,45)           109.114          estimate D2E/DX2                !
 ! A70   A(40,34,45)           110.3949         estimate D2E/DX2                !
 ! A71   A(33,35,41)           108.9633         estimate D2E/DX2                !
 ! A72   A(33,35,42)           109.866          estimate D2E/DX2                !
 ! A73   A(33,35,46)           111.7293         estimate D2E/DX2                !
 ! A74   A(41,35,42)           108.5189         estimate D2E/DX2                !
 ! A75   A(41,35,46)           110.0423         estimate D2E/DX2                !
 ! A76   A(42,35,46)           107.664          estimate D2E/DX2                !
 ! A77   A(34,38,43)           109.1389         estimate D2E/DX2                !
 ! A78   A(34,38,44)           110.004          estimate D2E/DX2                !
 ! A79   A(34,38,46)           111.6669         estimate D2E/DX2                !
 ! A80   A(43,38,44)           108.4912         estimate D2E/DX2                !
 ! A81   A(43,38,46)           109.9129         estimate D2E/DX2                !
 ! A82   A(44,38,46)           107.5667         estimate D2E/DX2                !
 ! A83   A(5,45,33)            122.3337         estimate D2E/DX2                !
 ! A84   A(5,45,34)            119.5019         estimate D2E/DX2                !
 ! A85   A(33,45,34)           113.732          estimate D2E/DX2                !
 ! A86   A(35,46,38)           110.5537         estimate D2E/DX2                !
 ! D1    D(6,1,2,3)              0.3725         estimate D2E/DX2                !
 ! D2    D(6,1,2,47)           179.9052         estimate D2E/DX2                !
 ! D3    D(8,1,2,3)            179.7756         estimate D2E/DX2                !
 ! D4    D(8,1,2,47)            -0.6917         estimate D2E/DX2                !
 ! D5    D(2,1,6,5)              2.2103         estimate D2E/DX2                !
 ! D6    D(8,1,6,5)           -177.2232         estimate D2E/DX2                !
 ! D7    D(2,1,8,9)           -136.9237         estimate D2E/DX2                !
 ! D8    D(2,1,8,16)            46.4023         estimate D2E/DX2                !
 ! D9    D(6,1,8,9)             42.5184         estimate D2E/DX2                !
 ! D10   D(6,1,8,16)          -134.1555         estimate D2E/DX2                !
 ! D11   D(1,2,3,4)             -1.3107         estimate D2E/DX2                !
 ! D12   D(1,2,3,29)           179.0711         estimate D2E/DX2                !
 ! D13   D(47,2,3,4)           179.1555         estimate D2E/DX2                !
 ! D14   D(47,2,3,29)           -0.4627         estimate D2E/DX2                !
 ! D15   D(2,3,4,5)             -0.1926         estimate D2E/DX2                !
 ! D16   D(2,3,4,7)           -178.9562         estimate D2E/DX2                !
 ! D17   D(29,3,4,5)           179.4206         estimate D2E/DX2                !
 ! D18   D(29,3,4,7)             0.6571         estimate D2E/DX2                !
 ! D19   D(2,3,29,30)          -60.504          estimate D2E/DX2                !
 ! D20   D(2,3,29,31)           57.8502         estimate D2E/DX2                !
 ! D21   D(2,3,29,32)          178.7487         estimate D2E/DX2                !
 ! D22   D(4,3,29,30)          119.8877         estimate D2E/DX2                !
 ! D23   D(4,3,29,31)         -121.758          estimate D2E/DX2                !
 ! D24   D(4,3,29,32)           -0.8595         estimate D2E/DX2                !
 ! D25   D(3,4,5,6)              2.7793         estimate D2E/DX2                !
 ! D26   D(3,4,5,45)          -175.2998         estimate D2E/DX2                !
 ! D27   D(7,4,5,6)           -178.4895         estimate D2E/DX2                !
 ! D28   D(7,4,5,45)             3.4314         estimate D2E/DX2                !
 ! D29   D(4,5,6,1)             -3.7697         estimate D2E/DX2                !
 ! D30   D(45,5,6,1)           174.4161         estimate D2E/DX2                !
 ! D31   D(4,5,45,33)          -21.4697         estimate D2E/DX2                !
 ! D32   D(4,5,45,34)         -176.3512         estimate D2E/DX2                !
 ! D33   D(6,5,45,33)          160.3762         estimate D2E/DX2                !
 ! D34   D(6,5,45,34)            5.4947         estimate D2E/DX2                !
 ! D35   D(1,8,9,10)          -176.3192         estimate D2E/DX2                !
 ! D36   D(1,8,9,17)             4.6343         estimate D2E/DX2                !
 ! D37   D(16,8,9,10)            0.443          estimate D2E/DX2                !
 ! D38   D(16,8,9,17)         -178.6035         estimate D2E/DX2                !
 ! D39   D(1,8,16,11)          176.5617         estimate D2E/DX2                !
 ! D40   D(1,8,16,28)           -1.8516         estimate D2E/DX2                !
 ! D41   D(9,8,16,11)           -0.2897         estimate D2E/DX2                !
 ! D42   D(9,8,16,28)         -178.703          estimate D2E/DX2                !
 ! D43   D(8,9,10,12)           -0.3353         estimate D2E/DX2                !
 ! D44   D(8,9,10,13)         -179.0441         estimate D2E/DX2                !
 ! D45   D(17,9,10,12)         178.7514         estimate D2E/DX2                !
 ! D46   D(17,9,10,13)           0.0426         estimate D2E/DX2                !
 ! D47   D(8,9,17,18)         -130.0466         estimate D2E/DX2                !
 ! D48   D(8,9,17,19)           51.1548         estimate D2E/DX2                !
 ! D49   D(10,9,17,18)          50.8938         estimate D2E/DX2                !
 ! D50   D(10,9,17,19)        -127.9048         estimate D2E/DX2                !
 ! D51   D(9,10,12,11)           0.0457         estimate D2E/DX2                !
 ! D52   D(9,10,12,14)        -179.6414         estimate D2E/DX2                !
 ! D53   D(13,10,12,11)        178.7412         estimate D2E/DX2                !
 ! D54   D(13,10,12,14)         -0.9459         estimate D2E/DX2                !
 ! D55   D(15,11,12,10)        179.5212         estimate D2E/DX2                !
 ! D56   D(15,11,12,14)         -0.791          estimate D2E/DX2                !
 ! D57   D(16,11,12,10)          0.1187         estimate D2E/DX2                !
 ! D58   D(16,11,12,14)        179.8064         estimate D2E/DX2                !
 ! D59   D(12,11,16,8)           0.0086         estimate D2E/DX2                !
 ! D60   D(12,11,16,28)        178.4452         estimate D2E/DX2                !
 ! D61   D(15,11,16,8)        -179.4152         estimate D2E/DX2                !
 ! D62   D(15,11,16,28)         -0.9786         estimate D2E/DX2                !
 ! D63   D(9,17,18,20)         179.94           estimate D2E/DX2                !
 ! D64   D(9,17,18,21)           1.5533         estimate D2E/DX2                !
 ! D65   D(19,17,18,20)         -1.2307         estimate D2E/DX2                !
 ! D66   D(19,17,18,21)       -179.6174         estimate D2E/DX2                !
 ! D67   D(9,17,19,22)         179.9631         estimate D2E/DX2                !
 ! D68   D(9,17,19,23)          -0.5879         estimate D2E/DX2                !
 ! D69   D(18,17,19,22)          1.1516         estimate D2E/DX2                !
 ! D70   D(18,17,19,23)       -179.3995         estimate D2E/DX2                !
 ! D71   D(17,18,20,24)          0.4873         estimate D2E/DX2                !
 ! D72   D(17,18,20,25)       -179.2181         estimate D2E/DX2                !
 ! D73   D(21,18,20,24)        178.8664         estimate D2E/DX2                !
 ! D74   D(21,18,20,25)         -0.8389         estimate D2E/DX2                !
 ! D75   D(17,19,22,24)         -0.3298         estimate D2E/DX2                !
 ! D76   D(17,19,22,26)        179.8392         estimate D2E/DX2                !
 ! D77   D(23,19,22,24)       -179.7759         estimate D2E/DX2                !
 ! D78   D(23,19,22,26)          0.3931         estimate D2E/DX2                !
 ! D79   D(18,20,24,22)          0.3544         estimate D2E/DX2                !
 ! D80   D(18,20,24,27)       -179.8562         estimate D2E/DX2                !
 ! D81   D(25,20,24,22)       -179.9416         estimate D2E/DX2                !
 ! D82   D(25,20,24,27)         -0.1523         estimate D2E/DX2                !
 ! D83   D(19,22,24,20)         -0.4327         estimate D2E/DX2                !
 ! D84   D(19,22,24,27)        179.7779         estimate D2E/DX2                !
 ! D85   D(26,22,24,20)        179.3976         estimate D2E/DX2                !
 ! D86   D(26,22,24,27)         -0.3919         estimate D2E/DX2                !
 ! D87   D(36,33,35,41)         53.8806         estimate D2E/DX2                !
 ! D88   D(36,33,35,42)        -64.8864         estimate D2E/DX2                !
 ! D89   D(36,33,35,46)        175.6865         estimate D2E/DX2                !
 ! D90   D(37,33,35,41)        171.3264         estimate D2E/DX2                !
 ! D91   D(37,33,35,42)         52.5594         estimate D2E/DX2                !
 ! D92   D(37,33,35,46)        -66.8677         estimate D2E/DX2                !
 ! D93   D(45,33,35,41)        -67.417          estimate D2E/DX2                !
 ! D94   D(45,33,35,42)        173.816          estimate D2E/DX2                !
 ! D95   D(45,33,35,46)         54.3889         estimate D2E/DX2                !
 ! D96   D(35,33,45,5)         153.3905         estimate D2E/DX2                !
 ! D97   D(35,33,45,34)        -50.4116         estimate D2E/DX2                !
 ! D98   D(36,33,45,5)          33.7455         estimate D2E/DX2                !
 ! D99   D(36,33,45,34)       -170.0566         estimate D2E/DX2                !
 ! D100  D(37,33,45,5)         -85.9405         estimate D2E/DX2                !
 ! D101  D(37,33,45,34)         70.2574         estimate D2E/DX2                !
 ! D102  D(39,34,38,43)        -53.2            estimate D2E/DX2                !
 ! D103  D(39,34,38,44)         65.7214         estimate D2E/DX2                !
 ! D104  D(39,34,38,46)       -174.9221         estimate D2E/DX2                !
 ! D105  D(40,34,38,43)       -171.6956         estimate D2E/DX2                !
 ! D106  D(40,34,38,44)        -52.7742         estimate D2E/DX2                !
 ! D107  D(40,34,38,46)         66.5823         estimate D2E/DX2                !
 ! D108  D(45,34,38,43)         66.8297         estimate D2E/DX2                !
 ! D109  D(45,34,38,44)       -174.2489         estimate D2E/DX2                !
 ! D110  D(45,34,38,46)        -54.8924         estimate D2E/DX2                !
 ! D111  D(38,34,45,5)        -152.3698         estimate D2E/DX2                !
 ! D112  D(38,34,45,33)         50.6971         estimate D2E/DX2                !
 ! D113  D(39,34,45,5)         -31.8898         estimate D2E/DX2                !
 ! D114  D(39,34,45,33)        171.1771         estimate D2E/DX2                !
 ! D115  D(40,34,45,5)          86.6109         estimate D2E/DX2                !
 ! D116  D(40,34,45,33)        -70.3222         estimate D2E/DX2                !
 ! D117  D(33,35,46,38)        -60.0149         estimate D2E/DX2                !
 ! D118  D(41,35,46,38)         61.1672         estimate D2E/DX2                !
 ! D119  D(42,35,46,38)        179.266          estimate D2E/DX2                !
 ! D120  D(34,38,46,35)         60.3918         estimate D2E/DX2                !
 ! D121  D(43,38,46,35)        -60.8822         estimate D2E/DX2                !
 ! D122  D(44,38,46,35)       -178.8198         estimate D2E/DX2                !
 --------------------------------------------------------------------------------
 Trust Radius=3.00D-01 FncErr=1.00D-07 GrdErr=1.00D-06 EigMax=2.50D+02 EigMin=1.00D-04
 Number of steps in this run=    268 maximum allowed number of steps=    282.
 GradGradGradGradGradGradGradGradGradGradGradGradGradGradGradGradGradGrad

 Leave Link  103 at Tue Jun 11 17:30:34 2024, MaxMem=  8589934592 cpu:               1.0 elap:               0.1
 (Enter /opt/packages/gaussian/g16RevC.01/g16/l202.exe)
                          Input orientation:                          
 ---------------------------------------------------------------------
 Center     Atomic      Atomic             Coordinates (Angstroms)
 Number     Number       Type             X           Y           Z
 ---------------------------------------------------------------------
      1          6           0        1.829735   -1.635803   -0.356070
      2          6           0        0.498171   -1.755974   -0.740889
      3          6           0       -0.378727   -2.457038    0.104786
      4          6           0        0.124960   -3.020047    1.267805
      5          6           0        1.505215   -2.876383    1.567036
      6          7           0        2.305701   -2.163369    0.774553
      7          1           0       -0.544905   -3.578848    1.918552
      8          6           0        2.822576   -0.909014   -1.205606
      9          6           0        4.127329   -1.400467   -1.444927
     10          6           0        5.030902   -0.628958   -2.187789
     11          6           0        3.389019    1.109241   -2.483473
     12          6           0        4.669623    0.613243   -2.703948
     13          1           0        6.028951   -1.026755   -2.378466
     14          1           0        5.386760    1.195146   -3.284604
     15          1           0        3.062854    2.078936   -2.860687
     16          6           0        2.501067    0.341063   -1.744079
     17          6           0        4.581320   -2.732317   -0.950567
     18          6           0        5.788773   -2.841796   -0.249965
     19          6           0        3.834196   -3.893557   -1.193346
     20          6           0        6.228819   -4.080022    0.221239
     21          1           0        6.376149   -1.943086   -0.049521
     22          6           0        4.273161   -5.128911   -0.725175
     23          1           0        2.895451   -3.822246   -1.747454
     24          6           0        5.470797   -5.226494   -0.011591
     25          1           0        7.166292   -4.145515    0.776712
     26          1           0        3.678464   -6.023128   -0.920413
     27          1           0        5.811769   -6.195333    0.357942
     28          9           0        1.283488    0.852516   -1.517023
     29          6           0       -1.830102   -2.592626   -0.262638
     30          1           0       -2.300679   -1.601151   -0.340110
     31          1           0       -1.936400   -3.078920   -1.243640
     32          1           0       -2.381710   -3.182437    0.480575
     33          6           0        1.327548   -3.930940    3.805155
     34          6           0        3.497458   -3.232518    2.945837
     35          6           0        2.041434   -5.085492    4.493160
     36          1           0        0.332620   -4.275656    3.503570
     37          1           0        1.199311   -3.098715    4.524660
     38          6           0        4.097821   -4.424645    3.669009
     39          1           0        4.033951   -3.058245    2.006446
     40          1           0        3.602492   -2.325345    3.572697
     41          1           0        2.027759   -5.967625    3.823273
     42          1           0        1.519114   -5.345947    5.423735
     43          1           0        4.125007   -5.291513    2.979845
     44          1           0        5.125766   -4.195801    3.981762
     45          7           0        2.093908   -3.487418    2.653172
     46          8           0        3.364945   -4.754226    4.825759
     47          1           0        0.140540   -1.312060   -1.669936
 ---------------------------------------------------------------------
                    Distance matrix (angstroms):
                    1          2          3          4          5
     1  C    0.000000
     2  C    1.391255   0.000000
     3  C    2.400858   1.405563   0.000000
     4  C    2.731183   2.402503   1.386828   0.000000
     5  C    2.311426   2.756079   2.421418   1.419606   0.000000
     6  N    1.335357   2.393679   2.782262   2.394332   1.333115
     7  H    3.819456   3.388732   2.139117   1.088324   2.195453
     8  C    1.495215   2.517173   3.789703   4.225086   3.646029
     9  C    2.553416   3.713872   4.880829   5.099109   4.257432
    10  C    3.823140   4.889717   6.153199   6.459621   5.619617
    11  C    3.806899   4.427534   5.797701   6.463527   5.986697
    12  C    4.316909   5.183416   6.542282   7.044826   6.358638
    13  H    4.700472   5.814030   7.019301   7.219807   6.281106
    14  H    5.407681   6.251232   7.620187   8.135037   7.428469
    15  H    4.646824   5.077172   6.419780   7.188553   6.825405
    16  C    2.507041   3.068476   4.420507   5.100430   4.723046
    17  C    3.021091   4.203489   5.078545   4.986292   3.977625
    18  C    4.140007   5.423143   6.189664   5.866360   4.653123
    19  C    3.133105   3.987862   4.636535   4.536377   3.752133
    20  C    5.065514   6.258372   6.804947   6.282988   5.056911
    21  H    4.567086   5.921455   6.776157   6.478623   5.216349
    22  C    4.278828   5.062361   5.428425   5.062297   4.241419
    23  H    2.802184   3.321085   4.001853   4.172641   3.716619
    24  C    5.125335   6.107650   6.473049   5.923110   4.872466
    25  H    6.005055   7.244091   7.760783   7.147601   5.855177
    26  H    4.794257   5.324950   5.498075   5.141418   4.562063
    27  H    6.095549   7.010682   7.236102   6.576480   5.569896
    28  F    2.799630   2.832548   4.043065   4.908584   4.844096
    29  C    3.783999   2.519834   1.503288   2.519367   3.814782
    30  H    4.130590   2.831635   2.150436   3.237651   4.443901
    31  H    4.129666   2.816040   2.152054   3.249620   4.448105
    32  H    4.563805   3.438093   2.163183   2.632394   4.047500
    33  C    4.778665   5.107334   4.333185   2.951964   2.480490
    34  C    4.029068   4.976731   4.868034   3.772887   2.448868
    35  C    5.954847   6.392388   5.658955   4.282739   3.705387
    36  H    4.909888   4.938789   3.919837   2.572610   2.661411
    37  H    5.134109   5.479102   4.736796   3.430382   2.981702
    38  C    5.396584   6.287009   6.051004   4.849979   3.679268
    39  H    3.530353   4.663207   4.842467   3.978349   2.573064
    40  H    4.365014   5.344906   5.281463   4.229464   2.953792
    41  H    6.022525   6.396031   5.651773   4.340424   3.862568
    42  H    6.875158   7.206443   6.343407   4.962382   4.579636
    43  H    5.455348   6.284730   6.048457   4.908260   3.833040
    44  H    6.019485   7.047753   6.953681   5.809993   4.547544
    45  N    3.543135   4.130850   3.697280   2.452434   1.378265
    46  O    6.239614   6.942296   6.448235   5.115068   4.195732
    47  H    2.164355   1.089994   2.174914   3.398203   3.845443
                    6          7          8          9         10
     6  N    0.000000
     7  H    3.382051   0.000000
     8  C    2.400332   5.313032   0.000000
     9  C    2.970932   6.155331   1.414631   0.000000
    10  C    4.307738   7.526853   2.433068   1.401255   0.000000
    11  C    4.743236   7.538684   2.455026   2.814660   2.409262
    12  C    5.039610   8.132185   2.823806   2.436031   1.392841
    13  H    5.009592   8.257913   3.416183   2.151121   1.091193
    14  H    6.103221   9.222174   3.914685   3.421664   2.158007
    15  H    5.637854   8.238178   3.424160   3.904322   3.414483
    16  C    3.557226   6.169158   1.398576   2.401488   2.745521
    17  C    2.911732   5.935204   2.546107   1.491417   2.481322
    18  C    3.693466   6.735072   3.667045   2.503150   3.037463
    19  C    3.033558   5.381401   3.151352   2.522839   3.616439
    20  C    4.401201   7.001099   4.867614   3.791093   4.375873
    21  H    4.158866   7.379025   3.877334   2.701626   2.847598
    22  C    3.861932   5.710144   4.488044   3.800080   4.791971
    23  H    3.075743   5.033378   2.964090   2.733873   3.866670
    24  C    4.474214   6.529078   5.203785   4.300912   5.105554
    25  H    5.249214   7.815847   5.768223   4.658998   5.070930
    26  H    4.433410   5.645447   5.193076   4.673927   5.703718
    27  H    5.359367   7.049028   6.270975   5.392441   6.170497
    28  F    3.923239   5.897727   2.359822   3.628851   4.085071
    29  C    4.285428   2.716975   5.036978   6.189510   7.391588
    30  H    4.772557   3.477870   5.241744   6.525349   7.623067
    31  H    4.786100   3.490794   5.230468   6.294961   7.445605
    32  H    4.805907   2.366172   5.924209   7.017875   8.281741
    33  C    3.642202   2.681291   6.039443   6.465712   7.780315
    34  C    2.697747   4.185207   4.805061   4.799162   5.956852
    35  C    4.736737   3.948130   7.108381   7.293233   8.569288
    36  H    3.975216   1.941101   6.301627   6.866888   8.231879
    37  H    4.020233   3.172478   6.345528   6.862456   8.114047
    38  C    4.086923   5.033327   6.143922   5.941285   7.041304
    39  H    2.303304   4.609195   4.050173   3.830003   4.948429
    40  H    3.088286   4.637711   5.044447   5.129074   6.172624
    41  H    4.883063   3.994098   7.177110   7.281556   8.582138
    42  H    5.688797   4.434988   8.082917   8.339551   9.618625
    43  H    4.237744   5.086024   6.198437   5.892270   7.018868
    44  H    4.729666   6.065804   6.558692   6.185444   7.127042
    45  N    2.308067   2.740686   4.697796   5.028378   6.342841
    46  O    4.924105   5.012015   7.173366   7.151953   8.305607
    47  H    3.374637   4.299466   2.751611   3.994112   4.964921
                   11         12         13         14         15
    11  C    0.000000
    12  C    1.390888   0.000000
    13  H    3.397462   2.154833   0.000000
    14  H    2.154103   1.090898   2.484017   0.000000
    15  H    1.090405   2.180488   4.321526   2.522168   0.000000
    16  C    1.387537   2.387062   3.836579   3.380813   2.140706
    17  C    4.304527   3.778216   2.653954   4.639119   5.394669
    18  C    5.134011   4.383129   2.807593   5.066315   6.201621
    19  C    5.185615   4.826086   3.800002   5.716530   6.248653
    20  C    6.504489   5.745829   4.015078   6.389632   7.579866
    21  H    4.915666   4.061161   2.526696   4.614450   5.920915
    22  C    6.541243   6.086465   4.758556   6.912632   7.614349
    23  H    5.010479   4.871974   4.246383   5.808930   6.007600
    24  C    7.112351   6.480216   4.852983   7.208130   8.202734
    25  H    7.246313   6.402666   4.579886   6.941447   8.295340
    26  H    7.307368   6.942969   5.710906   7.785317   8.353866
    27  H    8.203667   7.552243   5.852290   8.250331   9.294064
    28  F    2.330921   3.596102   5.176211   4.480913   2.544736
    29  C    6.773120   7.647484   8.288148   8.692675   7.246680
    30  H    6.656793   7.686116   8.594624   8.694023   6.975947
    31  H    6.887522   7.707406   8.303374   8.721344   7.362802
    32  H    7.778521   8.617985   9.141132   9.679304   8.275830
    33  C    8.318649   8.613216   8.293048   9.644617   9.141299
    34  C    6.952700   6.934257   6.294605   7.873504   7.881380
    35  C    9.426776   9.548891   8.921484  10.541880  10.317528
    36  H    8.612977   9.013557   8.809194  10.077366   9.398871
    37  H    8.462603   8.835976   8.675920   9.846653   9.210006
    38  C    8.305380   8.143823   7.200477   9.033059   9.273869
    39  H    6.159809   6.005973   5.228234   6.922184   7.143013
    40  H    6.965569   7.012157   6.556705   7.912019   7.815199
    41  H    9.576539   9.638044   8.881627  10.635323  10.511607
    42  H   10.377376  10.559208   9.993417  11.557671  11.231370
    43  H    8.447436   8.213906   7.108070   9.105607   9.463800
    44  H    8.541605   8.248254   7.163176   9.051547   9.510365
    45  N    7.013680   7.221389   6.845203   8.247816   7.894669
    46  O    9.370469   9.338544   8.537671  10.259666  10.289063
    47  H    4.132452   5.028774   5.937743   6.034572   4.632134
                   16         17         18         19         20
    16  C    0.000000
    17  C    3.795099   0.000000
    18  C    4.813728   1.400276   0.000000
    19  C    4.473538   1.402004   2.411750   0.000000
    20  C    6.107749   2.429751   1.396022   2.787479   0.000000
    21  H    4.806779   2.157818   1.092185   3.402087   2.159054
    22  C    5.839443   2.426814   2.784564   1.392111   2.412564
    23  H    4.181948   2.159891   3.402215   1.092412   3.879890
    24  C    6.543585   2.809584   2.417585   2.419035   1.393989
    25  H    6.946085   3.415070   2.156689   3.879108   1.091648
    26  H    6.524386   3.412550   3.876052   2.152630   3.403431
    27  H    7.622579   3.901113   3.408268   3.408146   2.160361
    28  F    1.340014   4.903835   5.962463   5.397785   7.197762
    29  C    5.436931   6.449736   7.622959   5.885823   8.209305
    30  H    5.366571   7.001007   8.184532   6.604531   8.900126
    31  H    5.624752   6.533506   7.792427   5.828031   8.355769
    32  H    6.419163   7.122820   8.210147   6.476511   8.661069
    33  C    7.100785   5.885628   6.126399   5.591931   6.073643
    34  C    5.979849   4.075159   3.951701   4.205140   3.949941
    35  C    8.280212   6.451559   6.447787   6.080383   6.065845
    36  H    7.318065   6.346076   6.776030   5.870950   6.751084
    37  H    7.267994   6.445956   6.627685   6.345864   6.691662
    38  C    7.386685   4.943504   4.552262   4.898372   4.067805
    39  H    5.288806   3.024858   2.866643   3.313053   3.008062
    40  H    6.049048   4.645820   4.433880   5.022762   4.605296
    41  H    8.427276   6.306936   6.364535   5.721140   5.846931
    42  H    9.202384   7.539224   7.529385   7.159246   7.130908
    43  H    7.528516   4.712308   4.381884   4.410711   3.674730
    44  H    7.762566   5.173594   4.492262   5.342401   3.920671
    45  N    5.844558   4.443459   4.743107   4.241374   4.833525
    46  O    8.358889   6.239682   5.940985   6.098407   5.464241
    47  H    2.882777   4.717536   6.021540   4.531485   6.950201
                   21         22         23         24         25
    21  H    0.000000
    22  C    3.876667   0.000000
    23  H    4.304588   2.156505   0.000000
    24  C    3.406152   1.397518   3.408451   0.000000
    25  H    2.481467   3.404841   4.971519   2.159778   0.000000
    26  H    4.968169   1.091516   2.478102   2.161722   4.309363
    27  H    4.308846   2.162802   4.309193   1.091543   2.492359
    28  F    5.992007   6.733694   4.950245   7.533541   8.052883
    29  C    8.234675   6.625443   5.103675   7.765527   9.188407
    30  H    8.688424   7.470525   5.823542   8.581776   9.866338
    31  H    8.474344   6.559719   4.914585   7.810031   9.385012
    32  H    8.860987   7.037748   5.763844   8.129100   9.601019
    33  C    6.655709   5.534949   5.770754   5.780357   6.580915
    34  C    4.349904   4.204087   4.768351   4.076320   4.358785
    35  C    7.021426   5.675695   6.424204   5.663320   6.399978
    36  H    7.388476   5.842790   5.860626   6.297723   7.358788
    37  H    7.004160   6.413347   6.537569   6.584118   7.123747
    38  C    5.017607   4.453716   5.580918   4.009344   4.225969
    39  H    3.310056   3.436078   3.996454   3.292158   3.536377
    40  H    4.578183   5.175083   5.571770   4.975374   4.881723
    41  H    7.078414   5.141367   6.032291   5.206723   6.245490
    42  H    8.070117   6.740992   7.459351   6.721074   7.411240
    43  H    5.045460   3.711544   5.100775   3.280864   3.926388
    44  H    4.784289   4.873693   6.159364   4.138628   3.799818
    45  N    5.294063   4.342450   4.485542   4.639906   5.448236
    46  O    6.382649   5.637208   6.655535   5.296943   5.587088
    47  H    6.473543   5.704339   3.727811   6.817957   7.960888
                   26         27         28         29         30
    26  H    0.000000
    27  H    2.492957   0.000000
    28  F    7.305226   8.584463   0.000000
    29  C    6.522677   8.471293   4.810086   0.000000
    30  H    7.459275   9.349096   4.500207   1.100212   0.000000
    31  H    6.348191   8.503600   5.089067   1.100066   1.769991
    32  H    6.837982   8.730732   5.805594   1.097504   1.783411
    33  C    5.677592   6.092536   7.156044   5.320599   5.981235
    34  C    4.771599   4.564155   6.442537   6.251933   6.861283
    35  C    5.732870   5.705015   8.482731   6.619727   7.372590
    36  H    5.815493   6.603121   7.239382   4.657712   5.372254
    37  H    6.659370   6.944447   7.219505   5.687855   6.177266
    38  C    4.877889   4.127483   7.916049   7.345367   8.061387
    39  H    4.181316   3.964785   5.939186   6.304971   6.910643
    40  H    5.819571   5.494758   6.432871   6.655397   7.119125
    41  H    5.022994   5.136059   8.694080   6.555027   7.425310
    42  H    6.735694   6.694072   9.308630   7.150725   7.863601
    43  H    3.993329   3.245987   8.126816   7.298014   8.119748
    44  H    5.428179   4.195331   8.395549   8.304770   8.975682
    45  N    4.659523   5.140367   6.073083   4.969955   5.641820
    46  O    5.892953   5.293876   8.717735   7.586357   8.290198
    47  H    5.939095   7.753804   2.452570   2.739300   2.794917
                   31         32         33         34         35
    31  H    0.000000
    32  H    1.783798   0.000000
    33  C    6.072036   5.037031   0.000000
    34  C    6.863099   6.375315   2.436130   0.000000
    35  C    7.263633   6.267907   1.521833   2.819171   0.000000
    36  H    5.395983   4.207281   1.095292   3.378669   2.134284
    37  H    6.565543   5.402346   1.107579   2.791427   2.158112
    38  C    7.896640   7.327586   2.817214   1.518084   2.311854
    39  H    6.797689   6.595787   3.364754   1.095742   3.776718
    40  H    7.378638   6.790177   2.794162   1.107677   3.301903
    41  H    7.052147   6.194701   2.153766   3.226565   1.107743
    42  H    7.844353   6.658231   2.158412   3.810565   1.098465
    43  H    7.711942   7.282302   3.218396   2.152774   2.583378
    44  H    8.855870   8.345503   3.811535   2.156952   3.250566
    45  N    5.620978   4.984410   1.452957   1.456221   2.437653
    46  O    8.230949   7.373953   2.422895   2.422243   1.404294
    47  H    2.759928   3.805884   6.184185   6.021828   7.472345
                   36         37         38         39         40
    36  H    0.000000
    37  H    1.782966   0.000000
    38  C    3.771778   3.300241   0.000000
    39  H    4.174125   3.791863   2.152962   0.000000
    40  H    3.807959   2.698076   2.159094   1.782257   0.000000
    41  H    2.416292   3.067395   2.586453   3.973683   3.976025
    42  H    2.498064   2.441447   3.252321   4.820358   4.109847
    43  H    3.960865   3.969196   1.107766   2.437885   3.069633
    44  H    4.817602   4.112832   1.098569   2.527443   2.446692
    45  N    2.108704   2.110417   2.434335   2.089548   2.114655
    46  O    3.342485   2.742508   1.408475   3.357446   2.743366
    47  H    5.965313   6.533464   7.338433   5.632370   6.363730
                   41         42         43         44         45
    41  H    0.000000
    42  H    1.790721   0.000000
    43  H    2.359438   3.572988   0.000000
    44  H    3.572412   4.050933   1.790514   0.000000
    45  N    2.743162   3.385342   2.736209   3.385132   0.000000
    46  O    2.065280   2.028497   2.067310   2.030926   2.817884
    47  H    7.443872   8.276042   7.302909   8.069085   5.218917
                   46         47
    46  O    0.000000
    47  H    8.027412   0.000000
 Symmetry turned off by external request.
 Stoichiometry    C22H21FN2O
 Framework group  C1[X(C22H21FN2O)]
 Deg. of freedom   135
 Full point group                 C1      NOp   1
 Rotational constants (GHZ):           0.2788456           0.1739967           0.1257831
 Leave Link  202 at Tue Jun 11 17:30:35 2024, MaxMem=  8589934592 cpu:               1.3 elap:               0.1
 (Enter /opt/packages/gaussian/g16RevC.01/g16/l301.exe)
 General basis read from cards:  (5D, 7F)
 Centers:       1      2      3      4      5      8      9     10     11     12
 Centers:      16     17     18     19     20     22     24     29     33     34
 Centers:      35     38      7     13     14     15     21     23     25     26
 Centers:      27     30     31     32     36     37     39     40     41     42
 Centers:      43     44     47      6     45     28     46
 def2svp
 ****
 ======================================================================================================
                                       Pseudopotential Parameters
 ======================================================================================================
  Center     Atomic      Valence      Angular      Power
  Number     Number     Electrons     Momentum     of R      Exponent        Coefficient   SO-Coeffient
 ======================================================================================================
    1          6
                                   No pseudopotential on this center.
    2          6
                                   No pseudopotential on this center.
    3          6
                                   No pseudopotential on this center.
    4          6
                                   No pseudopotential on this center.
    5          6
                                   No pseudopotential on this center.
    6          7
                                   No pseudopotential on this center.
    7          1
                                   No pseudopotential on this center.
    8          6
                                   No pseudopotential on this center.
    9          6
                                   No pseudopotential on this center.
   10          6
                                   No pseudopotential on this center.
   11          6
                                   No pseudopotential on this center.
   12          6
                                   No pseudopotential on this center.
   13          1
                                   No pseudopotential on this center.
   14          1
                                   No pseudopotential on this center.
   15          1
                                   No pseudopotential on this center.
   16          6
                                   No pseudopotential on this center.
   17          6
                                   No pseudopotential on this center.
   18          6
                                   No pseudopotential on this center.
   19          6
                                   No pseudopotential on this center.
   20          6
                                   No pseudopotential on this center.
   21          1
                                   No pseudopotential on this center.
   22          6
                                   No pseudopotential on this center.
   23          1
                                   No pseudopotential on this center.
   24          6
                                   No pseudopotential on this center.
   25          1
                                   No pseudopotential on this center.
   26          1
                                   No pseudopotential on this center.
   27          1
                                   No pseudopotential on this center.
   28          9
                                   No pseudopotential on this center.
   29          6
                                   No pseudopotential on this center.
   30          1
                                   No pseudopotential on this center.
   31          1
                                   No pseudopotential on this center.
   32          1
                                   No pseudopotential on this center.
   33          6
                                   No pseudopotential on this center.
   34          6
                                   No pseudopotential on this center.
   35          6
                                   No pseudopotential on this center.
   36          1
                                   No pseudopotential on this center.
   37          1
                                   No pseudopotential on this center.
   38          6
                                   No pseudopotential on this center.
   39          1
                                   No pseudopotential on this center.
   40          1
                                   No pseudopotential on this center.
   41          1
                                   No pseudopotential on this center.
   42          1
                                   No pseudopotential on this center.
   43          1
                                   No pseudopotential on this center.
   44          1
                                   No pseudopotential on this center.
   45          7
                                   No pseudopotential on this center.
   46          8
                                   No pseudopotential on this center.
   47          1
                                   No pseudopotential on this center.
 ======================================================================================================
 Ernie: Thresh=  0.10000D-02 Tol=  0.10000D-05 Strict=F.
   469 basis functions,   797 primitive gaussians,   495 cartesian basis functions
    92 alpha electrons       92 beta electrons
       nuclear repulsion energy      2320.0374966091 Hartrees.
 IExCor= 4336 DFT=T Ex+Corr=M062X ExCW=0 ScaHFX=  0.540000
 ScaDFX=  1.000000  1.000000  1.000000  1.000000 ScalE2=  1.000000  1.000000
 IRadAn=      5 IRanWt=     -1 IRanGd=            0 ICorTp=0 IEmpDi=131
 NAtoms=   47 NActive=   47 NUniq=   47 SFac= 1.00D+00 NAtFMM=   60 NAOKFM=F Big=F
 Integral buffers will be    131072 words long.
 Raffenetti 2 integral format.
 Two-electron integral symmetry is turned off.
 R6Disp:  Grimme-D3 Dispersion energy=       -0.0038875989 Hartrees.
 Nuclear repulsion after empirical dispersion term =     2320.0336090103 Hartrees.
 ------------------------------------------------------------------------------
 Polarizable Continuum Model (PCM)
 =================================
 Model                : PCM.
 Atomic radii         : SMD-Coulomb.
 Polarization charges : Total charges.
 Charge compensation  : None.
 Solution method      : On-the-fly selection.
 Cavity type          : VdW (van der Waals Surface) (Alpha=1.000).
 Cavity algorithm     : GePol (No added spheres)
                        Default sphere list used, NSphG=   47.
                        Lebedev-Laikov grids with approx.  5.0 points / Ang**2.
                        Smoothing algorithm: York/Karplus (Gamma=1.0000).
                        Polarization charges: spherical gaussians, with
                                              point-specific exponents (IZeta= 3).
                        Self-potential: point-specific (ISelfS= 7).
                        Self-field    : sphere-specific E.n sum rule (ISelfD= 2).
 1st derivatives      : Analytical E(r).r(x)/FMM algorithm (CHGder, D1EAlg=3).
                        Cavity 1st derivative terms included.
 Solvent              : PropylEthanoate, Eps=   5.520500 Eps(inf)=   1.916010
 ------------------------------------------------------------------------------
 GePol: Number of generator spheres                  =      47
 GePol: Total number of spheres                      =      47
 GePol: Number of exposed spheres                    =      47 (100.00%)
 GePol: Number of points                             =    3436
 GePol: Average weight of points                     =       0.11
 GePol: Minimum weight of points                     =   0.99D-10
 GePol: Maximum weight of points                     =    0.21501
 GePol: Number of points with low weight             =     228
 GePol: Fraction of low-weight points (<1% of avg)   =       6.64%
 GePol: Cavity surface area                          =    377.576 Ang**2
 GePol: Cavity volume                                =    370.234 Ang**3
 ------------------------------------------------------------------------------
 Atomic radii for non-electrostatic terms: SMD-CDS.
 ------------------------------------------------------------------------------
 PCM non-electrostatic energy =        -0.0111360815 Hartrees.
 Nuclear repulsion after PCM non-electrostatic terms =     2320.0224729288 Hartrees.
 Leave Link  301 at Tue Jun 11 17:30:35 2024, MaxMem=  8589934592 cpu:               3.6 elap:               0.1
 (Enter /opt/packages/gaussian/g16RevC.01/g16/l302.exe)
 NPDir=0 NMtPBC=     1 NCelOv=     1 NCel=       1 NClECP=     1 NCelD=      1
         NCelK=      1 NCelE2=     1 NClLst=     1 CellRange=     0.0.
 One-electron integrals computed using PRISM.
   1 Symmetry operations used in ECPInt.
 ECPInt:  NShTT=   24090 NPrTT=   87554 LenC2=   21606 LenP2D=   53263.
 LDataN:  DoStor=T MaxTD1= 4 Len=   56
 NBasis=   469 RedAO= T EigKep=  2.28D-04  NBF=   469
 NBsUse=   469 1.00D-06 EigRej= -1.00D+00 NBFU=   469
 Precomputing XC quadrature grid using
 IXCGrd= 4 IRadAn=           5 IRanWt=          -1 IRanGd=           0 AccXCQ= 0.00D+00.
 Generated NRdTot=       0 NPtTot=           0 NUsed=           0 NTot=          32
 NSgBfM=   492   492   492   492   492 MxSgAt=    47 MxSgA2=    47.
 Leave Link  302 at Tue Jun 11 17:30:35 2024, MaxMem=  8589934592 cpu:              14.6 elap:               0.5
 (Enter /opt/packages/gaussian/g16RevC.01/g16/l303.exe)
 DipDrv:  MaxL=1.
 Leave Link  303 at Tue Jun 11 17:30:36 2024, MaxMem=  8589934592 cpu:               2.9 elap:               0.1
 (Enter /opt/packages/gaussian/g16RevC.01/g16/l401.exe)
 ExpMin= 1.22D-01 ExpMax= 2.89D+03 ExpMxC= 4.35D+02 IAcc=3 IRadAn=         5 AccDes= 0.00D+00
 Harris functional with IExCor= 1009 and IRadAn=       5 diagonalized for initial guess.
 HarFok:  IExCor= 1009 AccDes= 0.00D+00 IRadAn=         5 IDoV= 1 UseB2=F ITyADJ=14
 ICtDFT=  3500011 ScaDFX=  1.000000  1.000000  1.000000  1.000000
 FoFCou: FMM=F IPFlag=           0 FMFlag=      100000 FMFlg1=           0
         NFxFlg=           0 DoJE=T BraDBF=F KetDBF=T FulRan=T
         wScrn=  0.000000 ICntrl=       500 IOpCl=  0 I1Cent=   200000004 NGrid=           0
         NMat0=    1 NMatS0=      1 NMatT0=    0 NMatD0=    1 NMtDS0=    0 NMtDT0=    0
 Symmetry not used in FoFCou.
 Harris En= -1133.67898446184    
 JPrj=0 DoOrth=F DoCkMO=F.
 Leave Link  401 at Tue Jun 11 17:30:37 2024, MaxMem=  8589934592 cpu:              32.4 elap:               1.1
 (Enter /opt/packages/gaussian/g16RevC.01/g16/l502.exe)
 Two-electron integral symmetry not used.
 Closed shell SCF:
 Using DIIS extrapolation, IDIIS=  1040.
 NGot=  8589934592 LenX=  8589423523 LenY=  8589178003
 Requested convergence on RMS density matrix=1.00D-08 within 128 cycles.
 Requested convergence on MAX density matrix=1.00D-06.
 Requested convergence on             energy=1.00D-06.
 No special actions if energy rises.
 Fock matrices will be formed incrementally for  20 cycles.

 Cycle   1  Pass 1  IDiag  1:
 FoFJK:  IHMeth= 1 ICntrl=       0 DoSepK=F KAlg= 0 I1Cent=           0 FoldK=F
 IRaf= 820000000 NMat=       1 IRICut=       1 DoRegI=T DoRafI=F ISym2E= 0 IDoP0=0 IntGTp=1.
 FoFCou: FMM=F IPFlag=           0 FMFlag=      100000 FMFlg1=           0
         NFxFlg=           0 DoJE=F BraDBF=F KetDBF=F FulRan=T
         wScrn=  0.000000 ICntrl=         0 IOpCl=  0 I1Cent=           0 NGrid=           0
         NMat0=    1 NMatS0=      1 NMatT0=    0 NMatD0=    1 NMtDS0=    0 NMtDT0=    0
 Symmetry not used in FoFCou.
 Inv3:  Mode=1 IEnd=    35418288.
 Iteration    1 A*A^-1 deviation from unit magnitude is 3.44D-15 for   2905.
 Iteration    1 A*A^-1 deviation from orthogonality  is 2.89D-15 for   2452    671.
 Iteration    1 A^-1*A deviation from unit magnitude is 3.44D-15 for   2905.
 Iteration    1 A^-1*A deviation from orthogonality  is 9.04D-14 for   1761   1714.
 E= -1133.82785923089    
 DIIS: error= 1.93D-02 at cycle   1 NSaved=   1.
 NSaved= 1 IEnMin= 1 EnMin= -1133.82785923089     IErMin= 1 ErrMin= 1.93D-02
 ErrMax= 1.93D-02  0.00D+00 EMaxC= 1.00D-01 BMatC= 4.43D-01 BMatP= 4.43D-01
 IDIUse=3 WtCom= 8.07D-01 WtEn= 1.93D-01
 Coeff-Com:  0.100D+01
 Coeff-En:   0.100D+01
 Coeff:      0.100D+01
 Gap=     0.265 Goal=   None    Shift=    0.000
 GapD=    0.265 DampG=1.000 DampE=0.500 DampFc=0.5000 IDamp=-1.
 Damping current iteration by 5.00D-01
 RMSDP=3.06D-03 MaxDP=1.33D-01              OVMax= 1.67D-01

 Cycle   2  Pass 1  IDiag  1:
 RMSU=  1.46D-03    CP:  9.73D-01
 E= -1134.07151727811     Delta-E=       -0.243658047219 Rises=F Damp=T
 DIIS: error= 4.79D-03 at cycle   2 NSaved=   2.
 NSaved= 2 IEnMin= 2 EnMin= -1134.07151727811     IErMin= 2 ErrMin= 4.79D-03
 ErrMax= 4.79D-03  0.00D+00 EMaxC= 1.00D-01 BMatC= 3.94D-02 BMatP= 4.43D-01
 IDIUse=3 WtCom= 9.52D-01 WtEn= 4.79D-02
 Coeff-Com: -0.193D+00 0.119D+01
 Coeff-En:   0.000D+00 0.100D+01
 Coeff:     -0.184D+00 0.118D+01
 Gap=     0.241 Goal=   None    Shift=    0.000
 RMSDP=9.36D-04 MaxDP=2.83D-02 DE=-2.44D-01 OVMax= 9.06D-02

 Cycle   3  Pass 1  IDiag  1:
 RMSU=  7.95D-04    CP:  9.58D-01  1.30D+00
 E= -1134.27977760310     Delta-E=       -0.208260324994 Rises=F Damp=F
 DIIS: error= 2.28D-03 at cycle   3 NSaved=   3.
 NSaved= 3 IEnMin= 3 EnMin= -1134.27977760310     IErMin= 3 ErrMin= 2.28D-03
 ErrMax= 2.28D-03  0.00D+00 EMaxC= 1.00D-01 BMatC= 8.54D-03 BMatP= 3.94D-02
 IDIUse=3 WtCom= 9.77D-01 WtEn= 2.28D-02
 Coeff-Com: -0.111D+00 0.402D+00 0.709D+00
 Coeff-En:   0.000D+00 0.000D+00 0.100D+01
 Coeff:     -0.109D+00 0.393D+00 0.716D+00
 Gap=     0.237 Goal=   None    Shift=    0.000
 RMSDP=3.14D-04 MaxDP=1.62D-02 DE=-2.08D-01 OVMax= 3.19D-02

 Cycle   4  Pass 1  IDiag  1:
 RMSU=  2.52D-04    CP:  9.58D-01  1.34D+00  7.76D-01
 E= -1134.28667831674     Delta-E=       -0.006900713634 Rises=F Damp=F
 DIIS: error= 8.91D-04 at cycle   4 NSaved=   4.
 NSaved= 4 IEnMin= 4 EnMin= -1134.28667831674     IErMin= 4 ErrMin= 8.91D-04
 ErrMax= 8.91D-04  0.00D+00 EMaxC= 1.00D-01 BMatC= 1.57D-03 BMatP= 8.54D-03
 IDIUse=3 WtCom= 9.91D-01 WtEn= 8.91D-03
 Coeff-Com: -0.307D-01 0.763D-01 0.335D+00 0.619D+00
 Coeff-En:   0.000D+00 0.000D+00 0.104D+00 0.896D+00
 Coeff:     -0.305D-01 0.756D-01 0.333D+00 0.622D+00
 Gap=     0.235 Goal=   None    Shift=    0.000
 RMSDP=1.17D-04 MaxDP=5.34D-03 DE=-6.90D-03 OVMax= 9.11D-03

 Cycle   5  Pass 1  IDiag  1:
 RMSU=  6.14D-05    CP:  9.58D-01  1.34D+00  8.39D-01  6.61D-01
 E= -1134.28824309283     Delta-E=       -0.001564776095 Rises=F Damp=F
 DIIS: error= 1.92D-04 at cycle   5 NSaved=   5.
 NSaved= 5 IEnMin= 5 EnMin= -1134.28824309283     IErMin= 5 ErrMin= 1.92D-04
 ErrMax= 1.92D-04  0.00D+00 EMaxC= 1.00D-01 BMatC= 6.92D-05 BMatP= 1.57D-03
 IDIUse=3 WtCom= 9.98D-01 WtEn= 1.92D-03
 Coeff-Com: -0.704D-02 0.113D-01 0.106D+00 0.258D+00 0.633D+00
 Coeff-En:   0.000D+00 0.000D+00 0.000D+00 0.000D+00 0.100D+01
 Coeff:     -0.703D-02 0.113D-01 0.105D+00 0.257D+00 0.633D+00
 Gap=     0.235 Goal=   None    Shift=    0.000
 RMSDP=2.79D-05 MaxDP=1.04D-03 DE=-1.56D-03 OVMax= 2.54D-03

 Cycle   6  Pass 1  IDiag  1:
 RMSU=  2.04D-05    CP:  9.58D-01  1.34D+00  8.43D-01  7.03D-01  7.48D-01
 E= -1134.28830648055     Delta-E=       -0.000063387713 Rises=F Damp=F
 DIIS: error= 7.42D-05 at cycle   6 NSaved=   6.
 NSaved= 6 IEnMin= 6 EnMin= -1134.28830648055     IErMin= 6 ErrMin= 7.42D-05
 ErrMax= 7.42D-05  0.00D+00 EMaxC= 1.00D-01 BMatC= 6.52D-06 BMatP= 6.92D-05
 IDIUse=1 WtCom= 1.00D+00 WtEn= 0.00D+00
 Coeff-Com: -0.303D-03-0.160D-02 0.185D-01 0.550D-01 0.267D+00 0.662D+00
 Coeff:     -0.303D-03-0.160D-02 0.185D-01 0.550D-01 0.267D+00 0.662D+00
 Gap=     0.235 Goal=   None    Shift=    0.000
 RMSDP=8.73D-06 MaxDP=3.68D-04 DE=-6.34D-05 OVMax= 8.50D-04

 Cycle   7  Pass 1  IDiag  1:
 RMSU=  6.92D-06    CP:  9.58D-01  1.34D+00  8.46D-01  7.03D-01  8.13D-01
                    CP:  8.67D-01
 E= -1134.28831307005     Delta-E=       -0.000006589504 Rises=F Damp=F
 DIIS: error= 2.14D-05 at cycle   7 NSaved=   7.
 NSaved= 7 IEnMin= 7 EnMin= -1134.28831307005     IErMin= 7 ErrMin= 2.14D-05
 ErrMax= 2.14D-05  0.00D+00 EMaxC= 1.00D-01 BMatC= 7.26D-07 BMatP= 6.52D-06
 IDIUse=1 WtCom= 1.00D+00 WtEn= 0.00D+00
 Coeff-Com:  0.908D-03-0.223D-02-0.573D-02-0.148D-01 0.181D-01 0.241D+00
 Coeff-Com:  0.762D+00
 Coeff:      0.908D-03-0.223D-02-0.573D-02-0.148D-01 0.181D-01 0.241D+00
 Coeff:      0.762D+00
 Gap=     0.235 Goal=   None    Shift=    0.000
 RMSDP=3.91D-06 MaxDP=1.70D-04 DE=-6.59D-06 OVMax= 4.01D-04

 Cycle   8  Pass 1  IDiag  1:
 RMSU=  2.65D-06    CP:  9.58D-01  1.34D+00  8.47D-01  7.07D-01  8.26D-01
                    CP:  9.81D-01  9.24D-01
 E= -1134.28831390685     Delta-E=       -0.000000836804 Rises=F Damp=F
 DIIS: error= 1.04D-05 at cycle   8 NSaved=   8.
 NSaved= 8 IEnMin= 8 EnMin= -1134.28831390685     IErMin= 8 ErrMin= 1.04D-05
 ErrMax= 1.04D-05  0.00D+00 EMaxC= 1.00D-01 BMatC= 1.53D-07 BMatP= 7.26D-07
 IDIUse=1 WtCom= 1.00D+00 WtEn= 0.00D+00
 Coeff-Com:  0.562D-03-0.996D-03-0.559D-02-0.169D-01-0.342D-01 0.101D-01
 Coeff-Com:  0.369D+00 0.678D+00
 Coeff:      0.562D-03-0.996D-03-0.559D-02-0.169D-01-0.342D-01 0.101D-01
 Coeff:      0.369D+00 0.678D+00
 Gap=     0.235 Goal=   None    Shift=    0.000
 RMSDP=1.52D-06 MaxDP=7.51D-05 DE=-8.37D-07 OVMax= 2.24D-04

 Cycle   9  Pass 1  IDiag  1:
 RMSU=  9.24D-07    CP:  9.58D-01  1.34D+00  8.47D-01  7.07D-01  8.36D-01
                    CP:  1.01D+00  1.04D+00  8.66D-01
 E= -1134.28831410745     Delta-E=       -0.000000200596 Rises=F Damp=F
 DIIS: error= 4.06D-06 at cycle   9 NSaved=   9.
 NSaved= 9 IEnMin= 9 EnMin= -1134.28831410745     IErMin= 9 ErrMin= 4.06D-06
 ErrMax= 4.06D-06  0.00D+00 EMaxC= 1.00D-01 BMatC= 1.14D-08 BMatP= 1.53D-07
 IDIUse=1 WtCom= 1.00D+00 WtEn= 0.00D+00
 Coeff-Com:  0.131D-03-0.183D-03-0.128D-02-0.467D-02-0.129D-01-0.176D-01
 Coeff-Com:  0.468D-01 0.231D+00 0.759D+00
 Coeff:      0.131D-03-0.183D-03-0.128D-02-0.467D-02-0.129D-01-0.176D-01
 Coeff:      0.468D-01 0.231D+00 0.759D+00
 Gap=     0.235 Goal=   None    Shift=    0.000
 RMSDP=4.32D-07 MaxDP=2.49D-05 DE=-2.01D-07 OVMax= 5.39D-05

 Cycle  10  Pass 1  IDiag  1:
 RMSU=  2.95D-07    CP:  9.58D-01  1.34D+00  8.47D-01  7.07D-01  8.37D-01
                    CP:  1.01D+00  1.06D+00  9.45D-01  1.05D+00
 E= -1134.28831412179     Delta-E=       -0.000000014345 Rises=F Damp=F
 DIIS: error= 1.15D-06 at cycle  10 NSaved=  10.
 NSaved=10 IEnMin=10 EnMin= -1134.28831412179     IErMin=10 ErrMin= 1.15D-06
 ErrMax= 1.15D-06  0.00D+00 EMaxC= 1.00D-01 BMatC= 1.58D-09 BMatP= 1.14D-08
 IDIUse=1 WtCom= 1.00D+00 WtEn= 0.00D+00
 Coeff-Com: -0.478D-04 0.100D-03 0.652D-03 0.137D-02 0.208D-02-0.581D-02
 Coeff-Com: -0.494D-01-0.304D-01 0.275D+00 0.807D+00
 Coeff:     -0.478D-04 0.100D-03 0.652D-03 0.137D-02 0.208D-02-0.581D-02
 Coeff:     -0.494D-01-0.304D-01 0.275D+00 0.807D+00
 Gap=     0.235 Goal=   None    Shift=    0.000
 RMSDP=1.92D-07 MaxDP=1.14D-05 DE=-1.43D-08 OVMax= 3.41D-05

 Cycle  11  Pass 1  IDiag  1:
 RMSU=  1.03D-07    CP:  9.58D-01  1.34D+00  8.47D-01  7.07D-01  8.37D-01
                    CP:  1.02D+00  1.07D+00  9.80D-01  1.17D+00  9.59D-01
 E= -1134.28831412449     Delta-E=       -0.000000002698 Rises=F Damp=F
 DIIS: error= 4.88D-07 at cycle  11 NSaved=  11.
 NSaved=11 IEnMin=11 EnMin= -1134.28831412449     IErMin=11 ErrMin= 4.88D-07
 ErrMax= 4.88D-07  0.00D+00 EMaxC= 1.00D-01 BMatC= 1.68D-10 BMatP= 1.58D-09
 IDIUse=1 WtCom= 1.00D+00 WtEn= 0.00D+00
 Coeff-Com: -0.247D-04 0.436D-04 0.321D-03 0.837D-03 0.172D-02-0.458D-03
 Coeff-Com: -0.215D-01-0.331D-01-0.374D-02 0.259D+00 0.797D+00
 Coeff:     -0.247D-04 0.436D-04 0.321D-03 0.837D-03 0.172D-02-0.458D-03
 Coeff:     -0.215D-01-0.331D-01-0.374D-02 0.259D+00 0.797D+00
 Gap=     0.235 Goal=   None    Shift=    0.000
 RMSDP=5.96D-08 MaxDP=2.74D-06 DE=-2.70D-09 OVMax= 8.23D-06

 Cycle  12  Pass 1  IDiag  1:
 RMSU=  3.01D-08    CP:  9.58D-01  1.34D+00  8.47D-01  7.07D-01  8.37D-01
                    CP:  1.02D+00  1.07D+00  9.89D-01  1.20D+00  1.05D+00
                    CP:  1.04D+00
 E= -1134.28831412468     Delta-E=       -0.000000000190 Rises=F Damp=F
 DIIS: error= 1.02D-07 at cycle  12 NSaved=  12.
 NSaved=12 IEnMin=12 EnMin= -1134.28831412468     IErMin=12 ErrMin= 1.02D-07
 ErrMax= 1.02D-07  0.00D+00 EMaxC= 1.00D-01 BMatC= 1.77D-11 BMatP= 1.68D-10
 IDIUse=1 WtCom= 1.00D+00 WtEn= 0.00D+00
 Coeff-Com: -0.504D-05 0.739D-05 0.740D-04 0.214D-03 0.523D-03 0.427D-03
 Coeff-Com: -0.392D-02-0.100D-01-0.268D-01 0.431D-01 0.327D+00 0.670D+00
 Coeff:     -0.504D-05 0.739D-05 0.740D-04 0.214D-03 0.523D-03 0.427D-03
 Coeff:     -0.392D-02-0.100D-01-0.268D-01 0.431D-01 0.327D+00 0.670D+00
 Gap=     0.235 Goal=   None    Shift=    0.000
 RMSDP=1.58D-08 MaxDP=6.47D-07 DE=-1.90D-10 OVMax= 1.77D-06

 Cycle  13  Pass 1  IDiag  1:
 RMSU=  1.16D-08    CP:  9.58D-01  1.34D+00  8.47D-01  7.07D-01  8.37D-01
                    CP:  1.02D+00  1.07D+00  9.89D-01  1.20D+00  1.07D+00
                    CP:  1.09D+00  8.30D-01
 E= -1134.28831412471     Delta-E=       -0.000000000025 Rises=F Damp=F
 DIIS: error= 3.92D-08 at cycle  13 NSaved=  13.
 NSaved=13 IEnMin=13 EnMin= -1134.28831412471     IErMin=13 ErrMin= 3.92D-08
 ErrMax= 3.92D-08  0.00D+00 EMaxC= 1.00D-01 BMatC= 1.48D-12 BMatP= 1.77D-11
 IDIUse=1 WtCom= 1.00D+00 WtEn= 0.00D+00
 Coeff-Com:  0.187D-05-0.364D-05-0.212D-04-0.513D-04-0.949D-04 0.104D-03
 Coeff-Com:  0.169D-02 0.161D-02-0.591D-02-0.178D-01-0.325D-01 0.170D+00
 Coeff-Com:  0.883D+00
 Coeff:      0.187D-05-0.364D-05-0.212D-04-0.513D-04-0.949D-04 0.104D-03
 Coeff:      0.169D-02 0.161D-02-0.591D-02-0.178D-01-0.325D-01 0.170D+00
 Coeff:      0.883D+00
 Gap=     0.235 Goal=   None    Shift=    0.000
 RMSDP=6.15D-09 MaxDP=1.72D-07 DE=-2.46D-11 OVMax= 6.54D-07

 Error on total polarization charges =  0.04455
 SCF Done:  E(RM062X) =  -1134.28831412     A.U. after   13 cycles
            NFock= 13  Conv=0.61D-08     -V/T= 2.0102
 KE= 1.122812480610D+03 PE=-7.276869832523D+03 EE= 2.699746564860D+03
 SMD-CDS (non-electrostatic) energy       (kcal/mol) =      -6.99
 (included in total energy above)
 Leave Link  502 at Tue Jun 11 17:31:33 2024, MaxMem=  8589934592 cpu:            1742.8 elap:              56.1
 (Enter /opt/packages/gaussian/g16RevC.01/g16/l508.exe)
 QCSCF skips out because SCF is already converged.
 Leave Link  508 at Tue Jun 11 17:31:33 2024, MaxMem=  8589934592 cpu:               0.8 elap:               0.0
 (Enter /opt/packages/gaussian/g16RevC.01/g16/l601.exe)
 Copying SCF densities to generalized density rwf, IOpCl= 0 IROHF=0.

 **********************************************************************

            Population analysis using the SCF Density.

 **********************************************************************

 Alpha  occ. eigenvalues --  -25.26172 -19.62597 -14.77126 -14.73975 -10.64269
 Alpha  occ. eigenvalues --  -10.62382 -10.59652 -10.59191 -10.58831 -10.57891
 Alpha  occ. eigenvalues --  -10.57624 -10.57252 -10.57134 -10.56837 -10.56609
 Alpha  occ. eigenvalues --  -10.56514 -10.56151 -10.55823 -10.55599 -10.55553
 Alpha  occ. eigenvalues --  -10.55533 -10.55494 -10.55457 -10.54915 -10.54708
 Alpha  occ. eigenvalues --  -10.54384  -1.35072  -1.14950  -1.07150  -1.01118
 Alpha  occ. eigenvalues --   -0.97025  -0.94575  -0.90423  -0.87855  -0.86464
 Alpha  occ. eigenvalues --   -0.86083  -0.83045  -0.82637  -0.80970  -0.78737
 Alpha  occ. eigenvalues --   -0.77285  -0.74058  -0.71973  -0.71013  -0.68843
 Alpha  occ. eigenvalues --   -0.67692  -0.67095  -0.65387  -0.63273  -0.61776
 Alpha  occ. eigenvalues --   -0.60161  -0.58596  -0.57569  -0.57125  -0.56670
 Alpha  occ. eigenvalues --   -0.55693  -0.55218  -0.54283  -0.53037  -0.52563
 Alpha  occ. eigenvalues --   -0.52001  -0.51902  -0.51238  -0.50979  -0.49740
 Alpha  occ. eigenvalues --   -0.48961  -0.48627  -0.48518  -0.48206  -0.45929
 Alpha  occ. eigenvalues --   -0.45643  -0.45260  -0.44410  -0.44185  -0.43345
 Alpha  occ. eigenvalues --   -0.43162  -0.42872  -0.41648  -0.41102  -0.40845
 Alpha  occ. eigenvalues --   -0.39820  -0.39343  -0.37131  -0.36192  -0.33675
 Alpha  occ. eigenvalues --   -0.33088  -0.32190  -0.31369  -0.30590  -0.29878
 Alpha  occ. eigenvalues --   -0.28021  -0.24817
 Alpha virt. eigenvalues --   -0.01294   0.01027   0.02308   0.03414   0.04776
 Alpha virt. eigenvalues --    0.05546   0.10293   0.11427   0.11797   0.12395
 Alpha virt. eigenvalues --    0.13052   0.13983   0.14426   0.15194   0.15591
 Alpha virt. eigenvalues --    0.16314   0.16755   0.17253   0.17334   0.17868
 Alpha virt. eigenvalues --    0.18330   0.19048   0.19181   0.19355   0.19943
 Alpha virt. eigenvalues --    0.20268   0.20745   0.20971   0.21458   0.21952
 Alpha virt. eigenvalues --    0.22977   0.23642   0.25072   0.26193   0.27088
 Alpha virt. eigenvalues --    0.27406   0.29108   0.29469   0.30058   0.30836
 Alpha virt. eigenvalues --    0.31252   0.31810   0.33029   0.33187   0.33553
[...]
 .00031083,-0.00014616,0.00036395,-0.00005205,-0.00015291,-0.00023453,-
 0.00094739,-0.00017110,-0.00020500,0.00288230,0.00054747,-0.00004819,0
 .30966755,0.00002105,0.00006442,-0.00007569,-0.00004140,-0.00005740,0.
 00011100,0.00011899,0.00018328,-0.00014477,0.00019557,-0.00020781,0.00
 059518,0.00126042,0.00065250,-0.00122084,-0.00024591,-0.00022843,0.000
 12711,0.00001623,-0.00000540,-0.00003731,0.00001701,0.00000051,0.00000
 614,0.00001291,-0.00000881,0.00000374,-0.00000714,-0.00000219,0.000000
 12,0.00000164,-0.00000527,0.00000032,-0.00000782,-0.00000345,0.0000033
 1,-0.00000231,0.00000024,0.00000265,-0.00000040,0.00000009,0.00000148,
 -0.00000104,-0.00000145,0.00000194,-0.00001175,0.00001174,0.00000065,0
 .00003494,0.00000180,0.00002071,-0.00000848,0.00004880,-0.00000424,0.0
 0000717,-0.00004614,0.00001601,-0.00002268,-0.00003358,0.00000262,-0.0
 0000586,-0.00000705,0.00000774,-0.00002393,0.00000109,-0.00002320,0.00
 000066,-0.00000737,-0.00000162,0.00000821,0.00002551,0.00001100,0.0000
 1950,0.00002389,-0.00001917,0.00000121,0.00000831,0.00001900,-0.000016
 39,-0.00002194,-0.00002121,-0.00000167,-0.00001503,0.00000475,0.000000
 42,-0.00003657,0.00003186,0.00001976,-0.00000066,0.00000783,0.00001447
 ,0.00000096,0.00000798,0.00000562,0.00000285,-0.00000424,-0.00055608,-
 0.00037157,0.00052169,0.02373957,0.00729800,0.00657375,-0.00020388,0.0
 0026095,0.00216183,0.00005004,0.00008346,-0.00009753,0.00003678,0.0000
 6998,-0.00010991,-0.05349831,-0.06352254,-0.01887752,-0.00069628,0.000
 73346,-0.00014040,-0.00012564,0.00099135,-0.00080280,0.00030863,0.0002
 0962,0.00012763,-0.00063496,0.00021614,0.00004723,-0.02183872,-0.00312
 960,-0.00705196,0.05928574,0.06305745,-0.00008320,-0.00016755,0.000143
 28,0.00006917,0.00011051,-0.00021497,-0.00003352,-0.00025331,0.0002412
 3,-0.00039544,0.00015913,-0.00058305,-0.00031452,-0.00060323,0.0019614
 3,0.00029109,0.00042963,-0.00039412,-0.00001677,0.00000888,0.00002144,
 -0.00002034,-0.00001463,0.00000080,-0.00001275,0.00003609,-0.00000898,
 0.00000856,-0.00000354,0.00000126,0.00000319,0.00000321,-0.00000236,0.
 00001028,0.00000702,-0.00000745,0.00000491,0.00000162,-0.00000520,0.00
 000052,0.00000015,-0.00000155,0.00000219,0.00000243,-0.00000186,0.0000
 0427,-0.00001465,0.00000631,0.00001924,0.00001916,0.00002252,-0.000021
 79,0.00006830,-0.00001451,0.00004021,-0.00005902,0.00001689,-0.0000166
 3,-0.00000995,-0.00004244,0.00000168,0.00001056,-0.00001203,-0.0000107
 6,0.00002045,-0.00004842,0.00000360,0.00000186,0.00001212,-0.00001486,
 -0.00003429,0.00004894,0.00008125,-0.00000591,-0.00003755,0.00000500,0
 .00001184,0.00002226,-0.00001047,-0.00002467,-0.00002236,0.00001816,0.
 00001826,-0.00001249,0.00000149,0.00003742,-0.00002062,-0.00002092,0.0
 0000280,-0.00000779,-0.00001275,-0.00000410,-0.00000747,-0.00000815,-0
 .00000514,0.00000415,0.00075064,0.00026409,-0.00080521,-0.01119105,-0.
 00708136,-0.00281839,0.00178227,0.00081746,-0.00443252,-0.00003251,-0.
 00016811,0.00018066,-0.00006275,-0.00004484,0.00009787,-0.09006950,-0.
 02059204,-0.07776420,0.00017455,-0.00037411,0.00017940,0.00048421,0.00
 013831,0.00065787,0.00017876,0.00033215,0.00028109,0.00130360,0.000344
 77,0.00023329,-0.01553304,-0.00199576,-0.00354030,0.07876354,0.0146191
 3,0.08366067,-0.01012012,-0.00393325,-0.00124712,0.00737318,0.00485403
 ,-0.00539636,-0.00575306,-0.00934467,0.01243843,-0.02703935,0.02269374
 ,-0.04390390,-0.16693458,0.02860993,-0.07451980,0.02335743,-0.00876525
 ,0.02116251,0.00054300,-0.00041670,0.00121255,0.00010920,-0.00104422,0
 .00095328,-0.00009693,0.00038629,-0.00010123,0.00009778,-0.00002902,-0
 .00001741,0.00000139,-0.00007331,0.00000305,0.00019680,0.00006425,-0.0
 0010426,0.00006315,0.00000901,-0.00005004,0.00001225,0.00000030,-0.000
 01556,0.00000476,0.00001686,-0.00001433,-0.00048336,-0.00003724,0.0001
 9773,-0.00020431,0.00023762,0.00007483,-0.00024344,0.00012249,0.000233
 80,0.00009079,-0.00022444,-0.00023707,0.00002837,-0.00033018,0.0002773
 9,0.00004780,0.00003243,-0.00007126,-0.00005084,0.00010999,-0.00021801
 ,-0.00002736,0.00011636,0.00009719,0.00020069,-0.00007932,0.00013984,0
 .00008803,-0.00002915,-0.00003976,-0.00000793,-0.00001776,-0.00003987,
 0.00005076,-0.00004217,-0.00003338,0.00044941,0.00045678,-0.00030197,0
 .00026144,0.00065786,-0.00133890,-0.00039226,0.00011405,-0.00022783,-0
 .00045397,-0.00000011,-0.00033070,-0.00010777,-0.00009499,0.00010712,-
 0.15033133,-0.02184775,0.05917196,-0.20973712,-0.04140302,-0.03153322,
 0.01370848,0.00050754,-0.01210045,-0.01708101,-0.00935826,0.03082197,-
 0.00376673,-0.00190912,0.01016840,-0.03068326,-0.00140272,-0.00847406,
 -0.02166553,-0.00428768,-0.00353161,-0.02067465,-0.01039163,-0.0097809
 8,0.00028969,-0.00071818,-0.00006496,-0.00134620,0.00374105,-0.0023525
 2,0.00176499,-0.00109179,0.00143297,-0.00006623,0.00308762,-0.00329997
 ,0.61757349,-0.00207386,0.00876158,-0.00451386,0.00113773,-0.00383173,
 0.00749450,-0.00553743,0.00518045,-0.00450070,0.01782994,0.00765141,0.
 00616146,0.01655347,-0.08319460,0.06862716,-0.00602610,-0.02964391,0.0
 4909110,0.00019919,-0.00157094,-0.00003064,0.00044139,0.00058422,0.000
 28543,0.00038987,-0.00047517,0.00002453,-0.00013800,0.00004296,0.00006
 417,-0.00000636,-0.00008425,-0.00001230,-0.00020611,-0.00004689,0.0001
 2190,-0.00009085,-0.00003114,0.00004924,-0.00002446,-0.00000580,0.0000
 1938,-0.00003377,-0.00004560,0.00003032,0.00002301,0.00035154,-0.00020
 280,-0.00020429,-0.00024934,0.00005954,0.00016766,0.00001041,0.0002947
 6,-0.00008294,0.00021553,0.00024470,-0.00002733,0.00014797,-0.00019124
 ,0.00004012,-0.00000228,-0.00000918,0.00007176,-0.00012223,0.00025948,
 0.00004308,-0.00018453,-0.00006231,-0.00023685,0.00010385,-0.00029993,
 -0.00005731,0.00001869,0.00001795,-0.00001355,0.00009965,0.00014262,-0
 .00008833,0.00007512,0.00003529,-0.00036408,-0.00059827,0.00031506,-0.
 00025440,0.00007724,-0.00074883,0.00003595,-0.00004195,0.00009521,0.00
 000779,0.00000303,0.00010199,0.00029792,0.00010471,-0.00006665,-0.0231
 6529,-0.07024166,0.04545541,-0.03385184,-0.08027151,0.00938384,-0.0186
 4477,-0.00869176,0.03007548,-0.00515694,-0.00418204,0.00894466,0.00774
 214,0.01349372,-0.00862584,0.03051703,0.01066463,0.00577739,-0.0069123
 5,-0.00273081,-0.00134004,-0.02764652,0.00110478,-0.00329489,-0.001632
 58,0.00268723,-0.00123168,0.00404841,-0.00334592,0.00376484,-0.0005185
 5,0.00281681,-0.00077050,0.00253296,-0.00423966,0.00434438,0.05357065,
 0.23784408,-0.00275090,-0.00039686,0.00631989,0.00125440,0.00367190,-0
 .00810813,0.00284255,-0.00206947,0.00941500,-0.02725578,0.00984009,-0.
 01258541,-0.07658544,0.09769575,-0.22547627,0.00618087,0.04206587,-0.0
 5173062,0.00071721,-0.00038603,-0.00085845,-0.00060276,-0.00011556,-0.
 00018398,-0.00034328,0.00036824,0.00002693,0.00011998,-0.00001304,-0.0
 0009298,-0.00001651,0.00017286,-0.00003143,0.00024006,0.00008148,-0.00
 012035,0.00009041,0.00001916,-0.00006008,0.00002662,0.00001527,-0.0000
 3174,0.00004307,0.00005594,-0.00005199,0.00012513,-0.00046006,0.000131
 12,0.00037455,0.00015989,0.00006746,-0.00019588,-0.00007351,-0.0004125
 9,0.00006812,-0.00024809,-0.00007072,0.00000699,-0.00024175,-0.0000140
 7,-0.00002010,0.00003089,0.00000945,-0.00019756,0.00025733,-0.00004244
 ,-0.00002654,0.00013439,0.00015120,0.00030262,0.00006008,0.00022261,0.
 00007479,-0.00002580,0.00001007,-0.00005480,-0.00000839,-0.00000096,0.
 00005218,-0.00006879,-0.00001790,0.00029382,0.00073720,-0.00033053,0.0
 0032831,-0.00017818,0.00009761,-0.00014699,0.00006657,-0.00007526,-0.0
 0013971,0.00002911,-0.00015639,-0.00030313,-0.00015955,0.00006164,0.04
 708583,0.02880454,-0.18293061,-0.01806709,0.00940294,-0.10727012,0.017
 21455,0.01296980,-0.02754846,-0.00130812,-0.00083785,0.00805049,0.0215
 9747,0.01000480,-0.03505493,-0.02804631,-0.00598576,-0.00415407,0.0279
 7519,0.00580245,0.00983809,-0.02648776,-0.00433120,-0.00495364,-0.0004
 7488,-0.00062999,0.00224631,-0.00340722,0.00370025,-0.00203855,0.00136
 397,0.00009962,0.00065851,-0.00207851,0.00438370,-0.00228560,0.0570637
 4,-0.21066422,0.62501914,-0.00003603,0.00012755,-0.00013089,0.00020113
 ,0.00014545,-0.00016859,0.00034395,-0.00001896,0.00021232,-0.00084450,
 -0.00006692,-0.00006521,0.00159363,-0.00000484,-0.00002655,0.00046375,
 -0.00005508,-0.00016859,0.00054376,0.00022032,-0.00010320,-0.00003823,
 -0.00005044,0.00003807,-0.00004947,0.00014788,-0.00006291,0.00003859,-
 0.00005221,0.00003537,0.00003497,-0.00001704,-0.00000194,0.00000371,0.
 00002739,-0.00002080,0.00001261,0.00000661,-0.00001915,-0.00000271,-0.
 00000571,-0.00000223,0.00000286,0.00000072,-0.00000342,-0.00008714,0.0
 0003748,0.00001529,-0.00000592,0.00006844,-0.00000098,-0.00000646,0.00
 008010,0.00004055,-0.00000150,-0.00002427,-0.00002071,-0.00002909,0.00
 003898,0.00018603,0.00001385,0.00001428,-0.00003883,-0.00014554,-0.000
 06642,-0.00002252,0.00002351,-0.00001546,0.00003350,-0.00001518,-0.000
 07502,0.00014279,0.00013480,0.00000314,-0.00008111,0.00000194,0.000025
 49,0.00000129,0.00004398,-0.00010129,-0.00010602,0.00012017,-0.0000286
 8,-0.00002567,0.00001113,-0.00002090,0.00001202,-0.00000524,0.00001438
 ,0.00000222,-0.00000456,-0.00000771,-0.00001661,0.00003148,0.00000379,
 0.00000240,-0.04313716,-0.00690112,-0.01387897,0.00465970,-0.00224289,
 -0.00060054,-0.20611999,-0.03377718,-0.05600272,-0.00143628,0.00577047
 ,-0.00393314,0.00199001,-0.00033777,0.00154688,-0.11772623,-0.01860790
 ,0.06611181,0.00072406,0.00124252,-0.00074317,0.00060355,-0.00076324,-
 0.00083615,-0.01897068,-0.01253533,-0.01091812,-0.02801418,-0.00769190
 ,-0.00563215,-0.00554110,-0.00071692,0.01559113,-0.02074498,-0.0103159
 4,0.03718880,0.00075127,-0.00298076,0.00318681,0.43056943,0.00022010,0
 .00033602,-0.00071388,0.00020520,-0.00009160,0.00034561,-0.00014764,-0
 .00002059,-0.00010807,0.00051571,-0.00005617,0.00043284,-0.00021158,0.
 00055040,-0.00094212,0.00076742,-0.00091990,0.00160953,-0.00011110,-0.
 00006182,0.00002854,0.00000755,-0.00002106,0.00003056,0.00003845,-0.00
 002327,-0.00000897,0.00000574,0.00000446,0.00001984,0.00000655,-0.0000
 1000,0.00001268,-0.00001396,0.00000229,0.00001247,-0.00000974,-0.00000
 625,-0.00000465,-0.00000440,-0.00000441,-0.00000169,-0.00000574,-0.000
 00832,-0.00000300,-0.00007224,0.00005811,-0.00001790,-0.00003687,0.000
 03270,-0.00006482,-0.00003004,0.00009966,0.00008571,-0.00001123,0.0000
 1565,-0.00000511,-0.00004745,-0.00001837,0.00012105,0.00003644,0.00002
 169,-0.00003649,0.00003366,-0.00002939,-0.00002493,0.00000361,-0.00001
 174,-0.00000126,-0.00001239,-0.00007251,-0.00005339,0.00002093,-0.0000
 2232,-0.00001546,0.00001344,0.00002029,0.00004533,-0.00004923,0.000037
 38,0.00002122,0.00002803,-0.00003916,0.00001663,-0.00000248,-0.0000238
 4,0.00005043,0.00003441,0.00000641,0.00000045,0.00003811,0.00000236,0.
 00002096,0.00002425,0.00000188,-0.00001752,0.02528262,0.01328536,0.007
 00313,-0.02283092,-0.00519412,0.03699577,-0.03717980,-0.07909056,-0.01
 448753,0.00278949,-0.00378611,0.00351765,-0.00102242,0.00324815,-0.000
 87929,-0.01725220,-0.07698767,0.02805922,0.00457839,-0.00468018,0.0028
 0825,-0.00138886,0.00324603,-0.00165030,-0.03413909,-0.00472259,-0.009
 90438,-0.01104839,-0.00181089,-0.00314984,0.01091130,0.01193976,-0.017
 37978,-0.00664779,-0.00198626,0.00963059,-0.00281259,0.00252169,-0.003
 51947,0.08948833,0.14425912,-0.00015930,-0.00034711,0.00070004,-0.0002
 3840,0.00004007,-0.00024487,0.00011899,0.00004302,0.00006964,-0.000182
 70,0.00011602,-0.00016775,-0.00011563,-0.00043608,0.00005425,-0.000773
 45,0.00073914,-0.00115975,0.00008720,-0.00003848,0.00000096,-0.0000050
 3,0.00007646,-0.00003420,0.00000976,-0.00009876,0.00004952,-0.00002341
 ,0.00007981,-0.00004381,-0.00003865,0.00004357,-0.00001019,0.00003919,
 -0.00001115,0.00000618,-0.00000231,-0.00000841,0.00000293,0.00000379,0
 .00000962,-0.00000757,0.00000123,0.00000622,-0.00000514,0.00014559,-0.
 00009785,-0.00000773,0.00004757,-0.00004297,0.00005465,-0.00001744,-0.
 00007009,-0.00010968,0.00007441,-0.00003982,0.00006123,-0.00007996,-0.
 00009120,-0.00021801,-0.00001899,0.00001723,0.00002044,0.00017390,0.00
 005963,-0.00003737,-0.00002078,0.00000673,0.00000973,0.00005646,0.0001
 3594,-0.00019751,-0.00002653,-0.00000344,0.00003581,-0.00001667,0.0000
 1339,0.00006348,-0.00009031,0.00006941,0.00008507,-0.00010353,0.000081
 07,0.00000285,-0.00001010,0.00003702,-0.00003895,-0.00003616,0.0000029
 1,-0.00000744,-0.00002593,-0.00001307,-0.00000132,-0.00001687,-0.00001
 630,0.00000408,-0.02284531,-0.00345810,-0.00387657,0.01948794,0.013461
 00,-0.03327224,-0.02142159,-0.00116622,-0.10847048,-0.00139940,0.00318
 622,-0.00039140,0.00039007,0.00050800,0.00022305,0.02926339,0.02080730
 ,-0.18795121,-0.00346815,0.00445029,-0.00026657,-0.00066234,0.00019695
 ,0.00189716,-0.02340136,-0.00667399,-0.00476220,0.03045844,0.00661449,
 0.01214200,0.02040199,0.00461444,-0.03469401,0.00144694,-0.00078834,0.
 00529488,0.00371700,-0.00406293,0.00443790,-0.03068786,-0.03792210,0.3
 5081130,-0.00178162,0.01343344,-0.02306877,-0.08752271,0.03569924,-0.0
 8511704,0.00988735,-0.00796523,0.01708943,-0.00227550,-0.00290240,0.00
 141216,-0.00128333,-0.00102996,0.00120007,-0.00541387,-0.00193232,-0.0
 0316233,0.00055523,-0.00048699,0.00082834,0.00087770,0.00080364,-0.000
 01647,-0.00021616,0.00002551,0.00020277,0.00007664,0.00011239,-0.00016
 409,-0.00000775,-0.00011254,0.00003967,0.00013646,-0.00007544,0.000008
 73,0.00000744,-0.00000875,-0.00000377,0.00001954,-0.00000063,-0.000000
 35,-0.00001382,-0.00001295,-0.00001037,-0.00187726,-0.00007648,0.00000
 188,0.00000481,0.00002999,-0.00003234,0.00000313,-0.00003394,0.0000447
 1,-0.00006079,0.00000500,0.00001338,0.00001170,0.00001147,-0.00000052,
 0.00000339,0.00000134,-0.00000652,0.00002630,-0.00002165,0.00003725,-0
 .00000604,0.00002545,-0.00002665,-0.00000918,-0.00002369,-0.00000641,0
 .00000421,-0.00000338,0.00000054,-0.00000080,-0.00000236,-0.00000106,0
 .00000256,-0.00000199,-0.00000008,0.00078495,-0.00064150,0.00005591,0.
 00104543,0.00059459,0.00049162,-0.00008114,0.00030020,0.00006409,0.000
 17012,-0.00018520,-0.00002377,0.00003889,0.00013599,-0.00010832,-0.000
 08652,0.00000441,0.00007701,-0.00008161,0.00010173,0.00005957,0.000015
 80,0.00002392,-0.00004801,0.00003062,0.00003349,-0.00003203,-0.0000062
 0,-0.00000262,-0.00001631,0.00004931,-0.00006183,0.00002573,0.00010055
 ,-0.00003524,-0.00005724,0.00002021,-0.00001510,-0.00000119,0.00000246
 ,0.00000051,0.00000552,-0.00000569,0.00000952,-0.00000864,-0.00000285,
 0.00001198,-0.00000137,-0.00000397,0.00000245,-0.00000949,0.00020318,0
 .00032557,-0.00011998,0.00004432,0.00003845,-0.00003565,0.08661453,-0.
 00142358,0.00201550,-0.00505731,0.03690725,-0.08756450,0.11353994,0.00
 608437,-0.00266481,0.01054993,-0.00283084,0.00339112,0.00338527,-0.000
 61719,-0.00013663,-0.00015231,-0.00233219,0.00582077,0.00263285,0.0002
 0531,0.00012312,0.00060886,0.00051920,-0.00251227,-0.00120028,0.000384
 74,0.00028716,-0.00007338,0.00017569,-0.00025602,0.00012704,0.00041151
 ,0.00017591,0.00011627,-0.00019278,0.00009369,0.00002295,0.00001667,0.
 00001758,-0.00001663,0.00000258,-0.00001212,-0.00003618,-0.00000651,-0
 .00002550,-0.00000352,-0.00246734,-0.00012515,0.00043209,-0.00001168,0
 .00001081,-0.00009436,-0.00000213,-0.00000180,-0.00002111,0.00009697,-
 0.00005068,0.00002096,-0.00001353,-0.00002090,-0.00000375,-0.00000865,
 -0.00000172,0.,-0.00004098,0.00001720,-0.00002242,0.00002769,-0.000022
 53,0.00001680,0.00002187,0.00000258,0.00001417,-0.00000209,-0.00000024
 ,0.00000133,0.00000504,-0.00000755,0.00000379,-0.00000237,0.00000086,-
 0.00000143,-0.00010615,-0.00259886,-0.00043297,0.00119371,-0.00134375,
 -0.00118969,0.00014781,-0.00028809,0.00021355,-0.00047385,-0.00020025,
 -0.00047124,0.00008232,-0.00011749,-0.00019654,-0.00003897,-0.00015431
 ,-0.00014714,-0.00008997,-0.00003618,-0.00013229,-0.00008017,0.0000218
 1,0.00000770,0.00009222,0.00001039,0.00006445,0.00005117,0.00005118,0.
 00003489,0.00005362,0.00002174,-0.00003892,0.00005766,-0.00003212,0.00
 007932,-0.00003118,0.00003323,0.00004197,0.00000078,-0.00000366,-0.000
 00434,0.00001164,-0.00000624,0.00001638,0.00000095,-0.00000381,-0.0000
 0103,0.00000517,-0.00000820,0.00001599,0.00029570,-0.00072934,-0.00021
 656,0.00001860,0.00000968,-0.00002954,-0.03609811,0.08682041,0.0014421
 6,0.00243418,-0.00317571,-0.08582343,0.11115571,-0.26545094,-0.0072839
 2,0.00512055,-0.00997456,0.00211664,0.00330198,0.00130502,0.00064874,0
 .00004216,0.00027663,-0.00225790,0.00237111,0.00316855,-0.00040686,0.0
 0040695,-0.00038200,0.00065443,-0.00183568,-0.00069476,0.00009967,0.00
 010885,0.00004047,0.00008814,-0.00007297,0.00005704,0.00027359,-0.0000
 6836,-0.00003337,-0.00006675,0.00005386,-0.00000559,0.00000201,-0.0000
 0222,-0.00001366,0.00001402,-0.00000355,-0.00000451,-0.00001749,-0.000
 02093,0.00000923,-0.00182823,0.00041130,0.00046241,-0.00001181,-0.0000
 0364,-0.00003467,0.00000559,-0.00000147,0.00001676,0.00002196,-0.00000
 534,0.00000880,0.00000133,-0.00000011,-0.00000095,-0.00000111,-0.00000
 108,-0.00000224,-0.00000368,-0.00001224,0.00000899,-0.00001942,0.00000
 812,-0.00001324,-0.00000096,-0.00000273,0.00000035,-0.00000075,0.00000
 016,-0.00000062,0.00000289,-0.00000242,-0.00000186,0.00000021,0.000000
 32,-0.00000151,0.00180953,0.00150025,-0.00018799,-0.00071864,-0.001639
 19,0.00000988,0.00058968,-0.00009796,0.00011040,0.00024508,0.00005916,
 -0.00021601,-0.00002819,-0.00015974,0.00005045,-0.00001040,0.00002491,
 -0.00005135,-0.00006991,0.00003756,-0.00010773,-0.00004086,-0.00004670
 ,0.00001335,0.00000812,-0.00004337,0.00005999,0.00001618,0.00001978,0.
 00001991,0.00004761,-0.00002481,-0.00003090,0.00006924,-0.00003910,0.0
 0003289,-0.00002993,0.00002421,0.00001286,0.00000024,0.00000492,0.0000
 0025,0.00000438,0.00000352,0.00000130,0.00000020,0.00000473,0.00000333
 ,-0.00000603,0.00000265,0.00000309,0.00007276,-0.00065327,-0.00007512,
 -0.00002851,0.00004348,-0.00005115,0.09042038,-0.12240354,0.27483850\\
 0.00000185,-0.00000620,0.00000908,-0.00000528,0.00000512,-0.00001136,-
 0.00000191,-0.00001009,0.00002462,-0.00000580,0.00001219,-0.00000890,0
 .00000562,-0.00001395,0.00002353,0.00000806,0.00000497,-0.00001091,-0.
 00000060,0.00000022,-0.00000142,0.00000517,-0.00000015,-0.00000302,0.0
 0000698,0.00000453,-0.00000303,-0.00000153,-0.00000362,0.00000132,0.00
 000480,0.,-0.00000085,-0.00000309,0.00000249,0.00000021,0.00000018,-0.
 00000103,-0.00000037,0.00000107,-0.00000015,-0.00000006,0.00000263,0.0
 0000122,0.00000075,-0.00000792,0.00000199,0.00000662,-0.00000726,-0.00
 000413,-0.00000174,0.00000201,-0.00000166,0.00000155,-0.00000210,0.000
 00308,0.00000057,-0.00000084,0.00000076,-0.00000221,-0.00000002,-0.000
 00171,-0.00000184,-0.00000062,-0.00000204,0.00000052,-0.00000171,0.000
 00086,-0.00000039,-0.00000215,-0.00000214,-0.00000327,-0.00000051,-0.0
 0000275,-0.00000163,-0.00000209,-0.00000005,-0.00000135,-0.00000230,-0
 .00000135,-0.00000188,0.00000655,0.00000195,-0.00000081,0.00000121,-0.
 00000483,0.00000034,0.00000213,0.00000593,-0.00000022,-0.00000227,0.00
 000682,0.00000079,-0.00000044,0.00000433,0.00000156,0.00000460,-0.0000
 0096,-0.00000534,-0.00000442,0.00000386,-0.00000031,-0.00000346,-0.000
 00236,-0.00000088,0.00000125,0.00000192,0.00000170,-0.00000028,-0.0000
 0039,0.00000306,0.00000010,-0.00000463,-0.00000011,0.00000104,-0.00000
 362,0.00000004,0.00000209,-0.00000150,-0.00000062,-0.00000029,0.000000
 38,-0.00000120,0.00000104,-0.00000105,-0.00000091,-0.00000176,-0.00000
 078,-0.00000116,0.00000005,-0.00000167,-0.00000144,-0.00000509,0.00000
 543,-0.00001103,0.00000338,0.00000258,0.00000050,0.00000193,0.00000219
 ,0.00000149\\\@
 The archive entry for this job was punched.


 THE MOST INCOMPREHENSIBLE THING ABOUT THE WORLD
 IS THAT IT IS COMPREHENSIBLE. -- A. EINSTEIN
 Job cpu time:       0 days  4 hours 58 minutes 46.0 seconds.
 Elapsed time:       0 days  0 hours  9 minutes 25.1 seconds.
 File lengths (MBytes):  RWF=   1345 Int=      0 D2E=      0 Chk=     32 Scr=      1
 Normal termination of Gaussian 16 at Tue Jun 11 17:41:09 2024.
