 Entering Gaussian System, Link 0=/cm/shared/apps/spack/cpu/opt/spack/linux-centos8-zen/gcc-8.3.1/gaussian-16.C.01-po5bqktfeugvmjyga3v7eigbecnokxng/g16/g16
 Initial command:
 /cm/shared/apps/spack/cpu/opt/spack/linux-centos8-zen/gcc-8.3.1/gaussian-16.C.01-po5bqktfeugvmjyga3v7eigbecnokxng/g16/l1.exe "/scratch/bim12/job_36729432/Gau-2724410.inp" -scrdir="/scratch/bim12/job_36729432/"
 Entering Link 1 = /cm/shared/apps/spack/cpu/opt/spack/linux-centos8-zen/gcc-8.3.1/gaussian-16.C.01-po5bqktfeugvmjyga3v7eigbecnokxng/g16/l1.exe PID=   2724413.
  
 Copyright (c) 1988-2019, Gaussian, Inc.  All Rights Reserved.
  
 This is part of the Gaussian(R) 16 program.  It is based on
 the Gaussian(R) 09 system (copyright 2009, Gaussian, Inc.),
 the Gaussian(R) 03 system (copyright 2003, Gaussian, Inc.),
 the Gaussian(R) 98 system (copyright 1998, Gaussian, Inc.),
 the Gaussian(R) 94 system (copyright 1995, Gaussian, Inc.),
 the Gaussian 92(TM) system (copyright 1992, Gaussian, Inc.),
 the Gaussian 90(TM) system (copyright 1990, Gaussian, Inc.),
 the Gaussian 88(TM) system (copyright 1988, Gaussian, Inc.),
 the Gaussian 86(TM) system (copyright 1986, Carnegie Mellon
 University), and the Gaussian 82(TM) system (copyright 1983,
 Carnegie Mellon University). Gaussian is a federally registered
 trademark of Gaussian, Inc.
  
 This software contains proprietary and confidential information,
 including trade secrets, belonging to Gaussian, Inc.
  
 This software is provided under written license and may be
 used, copied, transmitted, or stored only in accord with that
 written license.
  
 The following legend is applicable only to US Government
 contracts under FAR:
  
                    RESTRICTED RIGHTS LEGEND
  
 Use, reproduction and disclosure by the US Government is
 subject to restrictions as set forth in subparagraphs (a)
 and (c) of the Commercial Computer Software - Restricted
 Rights clause in FAR 52.227-19.
  
 Gaussian, Inc.
 340 Quinnipiac St., Bldg. 40, Wallingford CT 06492
  
  
 ---------------------------------------------------------------
 Warning -- This program may not be used in any manner that
 competes with the business of Gaussian, Inc. or will provide
 assistance to any competitor of Gaussian, Inc.  The licensee
 of this program is prohibited from giving any competitor of
 Gaussian, Inc. access to this program.  By using this program,
 the user acknowledges that Gaussian, Inc. is engaged in the
 business of creating and licensing software in the field of
 computational chemistry and represents and warrants to the
 licensee that it is not a competitor of Gaussian, Inc. and that
 it will not use this program in any manner prohibited above.
 ---------------------------------------------------------------
  

 Cite this work as:
 Gaussian 16, Revision C.01,
 M. J. Frisch, G. W. Trucks, H. B. Schlegel, G. E. Scuseria, 
 M. A. Robb, J. R. Cheeseman, G. Scalmani, V. Barone, 
 G. A. Petersson, H. Nakatsuji, X. Li, M. Caricato, A. V. Marenich, 
 J. Bloino, B. G. Janesko, R. Gomperts, B. Mennucci, H. P. Hratchian, 
 J. V. Ortiz, A. F. Izmaylov, J. L. Sonnenberg, D. Williams-Young, 
 F. Ding, F. Lipparini, F. Egidi, J. Goings, B. Peng, A. Petrone, 
 T. Henderson, D. Ranasinghe, V. G. Zakrzewski, J. Gao, N. Rega, 
 G. Zheng, W. Liang, M. Hada, M. Ehara, K. Toyota, R. Fukuda, 
 J. Hasegawa, M. Ishida, T. Nakajima, Y. Honda, O. Kitao, H. Nakai, 
 T. Vreven, K. Throssell, J. A. Montgomery, Jr., J. E. Peralta, 
 F. Ogliaro, M. J. Bearpark, J. J. Heyd, E. N. Brothers, K. N. Kudin, 
 V. N. Staroverov, T. A. Keith, R. Kobayashi, J. Normand, 
 K. Raghavachari, A. P. Rendell, J. C. Burant, S. S. Iyengar, 
 J. Tomasi, M. Cossi, J. M. Millam, M. Klene, C. Adamo, R. Cammi, 
 J. W. Ochterski, R. L. Martin, K. Morokuma, O. Farkas, 
 J. B. Foresman, and D. J. Fox, Gaussian, Inc., Wallingford CT, 2019.
 
 ******************************************
 Gaussian 16:  ES64L-G16RevC.01  3-Jul-2019
                 4-Feb-2025 
 ******************************************
 %nprocshared=32
 Will use up to   32 processors via shared memory.
 %mem=54GB
 ----------------------------------------------------------------------
 #p m062x genecp opt freq nosymm scrf=(smd,solvent=propylethanoate) emp
 iricaldispersion=gd3 scf=(xqc,maxcycles=128)
 ----------------------------------------------------------------------
 1/18=20,19=15,26=3,38=1/1,3;
 2/9=110,12=2,15=1,17=6,18=5,40=1/2;
 3/5=7,11=2,16=1,17=8,25=1,30=1,70=32201,71=1,72=169,74=-55,124=31/1,2,3;
 4//1;
 5/5=2,7=128,8=3,13=1,38=5,53=169/2,8;
 6/7=2,8=2,9=2,10=2,28=1/1;
 7/30=1/1,2,3,16;
 1/18=20,19=15,26=3/3(2);
 2/9=110,15=1/2;
 99//99;
 2/9=110,15=1/2;
 3/5=7,6=1,11=2,16=1,17=8,25=1,30=1,70=32205,71=1,72=169,74=-55,82=7,124=31/1,2,3;
 4/5=5,16=3,69=1/1;
 5/5=2,7=128,8=3,13=1,38=5,53=169/2,8;
 7/30=1/1,2,3,16;
 1/18=20,19=15,26=3/3(-5);
 2/9=110,15=1/2;
 6/7=2,8=2,9=2,10=2,19=2,28=1/1;
 99/9=1/99;
 Leave Link    1 at Tue Feb  4 08:55:58 2025, MaxMem=  7247757312 cpu:               0.8 elap:               0.0
 (Enter /cm/shared/apps/spack/cpu/opt/spack/linux-centos8-zen/gcc-8.3.1/gaussian-16.C.01-po5bqktfeugvmjyga3v7eigbecnokxng/g16/l101.exe)
 -------------------------
 noalkyne_S-ax-R_00_comp_9
 -------------------------
 Symbolic Z-matrix:
 Charge =  0 Multiplicity = 1
 C                     3.44097   0.32972   0.26341 
 C                     4.71625   0.22788  -0.24008 
 C                     5.38742  -1.003    -0.16555 
 C                     4.76228  -2.08612   0.41656 
 C                     3.4508   -1.9686    0.91592 
 N                     2.88484  -0.74982   0.84932 
 H                     5.25867  -3.04232   0.43544 
 C                     2.61209   1.53626   0.27978 
 C                     2.40265   2.33345  -0.85195 
 C                     1.52819   3.41071  -0.76704 
 C                     1.08777   2.94791   1.54742 
 C                     0.86001   3.70069   0.40804 
 H                     1.34317   3.99875  -1.65263 
 H                     0.15991   4.52136   0.43955 
 H                     0.59626   3.14217   2.48607 
 C                     1.94601   1.875     1.45994 
 C                     3.06972   2.02933  -2.13 
 C                     3.8257    3.00848  -2.76837 
 C                     2.94492   0.77202  -2.71495 
 C                     4.46954   2.72858  -3.96061 
 H                     3.91932   3.98638  -2.31763 
 C                     3.58333   0.5021   -3.91215 
 H                     2.31768   0.03088  -2.24304 
 C                     4.35315   1.47301  -4.53278 
 H                     5.06064   3.49222  -4.44523 
 H                     3.476    -0.47221  -4.36585 
 H                     4.85368   1.25581  -5.46528 
 F                     2.23963   1.17773   2.57829 
 C                     6.75992  -1.11787  -0.74018 
 H                     7.16076  -2.11999  -0.61847 
 H                     6.73444  -0.87279  -1.80066 
 H                     7.42865  -0.40829  -0.25596 
 C                     1.30259  -2.92884   1.63963 
 C                     3.33529  -4.05138   2.20006 
 C                     1.02221  -2.68247   3.12296 
 H                     0.8939   -3.90657   1.364 
 H                     0.82284  -2.17109   1.02168 
 C                     3.0035   -3.77459   3.68017 
 H                     2.90095  -5.01005   1.90256 
 H                     4.41486  -4.08523   2.06758 
 H                    -0.05002  -2.70956   3.315 
 H                     1.4043   -1.69788   3.4255 
 H                     3.37449  -4.58532   4.31026 
 H                     3.48638  -2.83033   3.97975 
 N                     2.73869  -2.9989    1.40271 
 O                     1.6199   -3.70611   3.89856 
 H                     1.90751  -0.6349    1.161 
 C                    -6.4157   -1.82565  -0.05042 
 C                    -5.3234   -1.00393  -0.05434 
 C                    -4.05153  -1.49429  -0.41942 
 C                    -3.9193   -2.86896  -0.75349 
 C                    -5.06988  -3.68575  -0.74816 
 C                    -6.29137  -3.1764   -0.4091 
 H                    -7.38349  -1.43965   0.23409 
 H                    -5.42068   0.03223   0.23192 
 C                    -2.89277  -0.66952  -0.42723 
 C                    -2.64652  -3.3911   -1.06844 
 H                    -4.96285  -4.72876  -1.01051 
 H                    -7.166    -3.81036  -0.40456 
 C                    -1.54226  -2.58773  -1.02855 
 C                    -1.67701  -1.23462  -0.71106 
 H                    -2.56098  -4.43788  -1.3226 
 C                    -2.96816   0.76606  -0.10838 
 C                    -2.32825   1.24712   1.0041 
 C                    -3.68305   1.67236  -0.94048 
 C                    -2.39711   2.59227   1.37284 
 C                    -3.75435   3.04092  -0.56599 
 C                    -4.29587   1.26618  -2.14497 
 C                    -3.11044   3.47489   0.61279 
 C                    -4.46712   3.93749  -1.39003 
 C                    -4.97175   2.16317  -2.92425 
 H                    -4.21633   0.23328  -2.44842 
 H                    -3.18337   4.51617   0.89308 
 C                    -5.06691   3.50926  -2.54046 
 H                    -4.52408   4.9755   -1.09407 
 H                    -5.43523   1.84036  -3.84497 
 H                    -5.60954   4.20346  -3.1655 
 S                    -0.21011  -0.23502  -0.53935 
 O                    -0.40278   1.01657  -1.23305 
 O                     0.92191  -1.02026  -1.01706 
 S                    -1.26198   0.16583   1.94571 
 O                    -1.92043  -1.10606   2.15122 
 O                    -0.85183   0.85521   3.14138 
 N                     0.01958  -0.03516   1.01494 
 H                     5.1916    1.08054  -0.69458 
 H                    -1.88463   2.88328   2.27578 
 H                    -0.55062  -2.95328  -1.24707 
 
 Add virtual bond connecting atoms O80        and H23        Dist= 4.03D+00.
 Add virtual bond connecting atoms N84        and H47        Dist= 3.75D+00.
 ITRead=  0  0  0  0  0  0  0  0  0  0  0  0  0  0  0  0  0  0  0  0
 ITRead=  0  0  0  0  0  0  0  0  0  0  0  0  0  0  0  0  0  0  0  0
 ITRead=  0  0  0  0  0  0  0  0  0  0  0  0  0  0  0  0  0  0  0  0
 ITRead=  0  0  0  0  0  0  0  0  0  0  0  0  0  0  0  0  0  0  0  0
 ITRead=  0  0  0  0  0  0  0
 MicOpt= -1 -1 -1 -1 -1 -1 -1 -1 -1 -1 -1 -1 -1 -1 -1 -1 -1 -1 -1 -1
 MicOpt= -1 -1 -1 -1 -1 -1 -1 -1 -1 -1 -1 -1 -1 -1 -1 -1 -1 -1 -1 -1
 MicOpt= -1 -1 -1 -1 -1 -1 -1 -1 -1 -1 -1 -1 -1 -1 -1 -1 -1 -1 -1 -1
 MicOpt= -1 -1 -1 -1 -1 -1 -1 -1 -1 -1 -1 -1 -1 -1 -1 -1 -1 -1 -1 -1
 MicOpt= -1 -1 -1 -1 -1 -1 -1
 NAtoms=     87 NQM=       87 NQMF=       0 NMMI=      0 NMMIF=      0
                NMic=       0 NMicF=      0.
                    Isotopes and Nuclear Properties:
 (Nuclear quadrupole moments (NQMom) in fm**2, nuclear magnetic moments (NMagM)
  in nuclear magnetons)

  Atom         1           2           3           4           5           6           7           8           9          10
 IAtWgt=          12          12          12          12          12          14           1          12          12          12
 AtmWgt=  12.0000000  12.0000000  12.0000000  12.0000000  12.0000000  14.0030740   1.0078250  12.0000000  12.0000000  12.0000000
 NucSpn=           0           0           0           0           0           2           1           0           0           0
 AtZEff=  -0.0000000  -0.0000000  -0.0000000  -0.0000000  -0.0000000  -0.0000000  -0.0000000  -0.0000000  -0.0000000  -0.0000000
 NQMom=    0.0000000   0.0000000   0.0000000   0.0000000   0.0000000   2.0440000   0.0000000   0.0000000   0.0000000   0.0000000
 NMagM=    0.0000000   0.0000000   0.0000000   0.0000000   0.0000000   0.4037610   2.7928460   0.0000000   0.0000000   0.0000000
 AtZNuc=   6.0000000   6.0000000   6.0000000   6.0000000   6.0000000   7.0000000   1.0000000   6.0000000   6.0000000   6.0000000

  Atom        11          12          13          14          15          16          17          18          19          20
 IAtWgt=          12          12           1           1           1          12          12          12          12          12
 AtmWgt=  12.0000000  12.0000000   1.0078250   1.0078250   1.0078250  12.0000000  12.0000000  12.0000000  12.0000000  12.0000000
 NucSpn=           0           0           1           1           1           0           0           0           0           0
 AtZEff=  -0.0000000  -0.0000000  -0.0000000  -0.0000000  -0.0000000  -0.0000000  -0.0000000  -0.0000000  -0.0000000  -0.0000000
 NQMom=    0.0000000   0.0000000   0.0000000   0.0000000   0.0000000   0.0000000   0.0000000   0.0000000   0.0000000   0.0000000
 NMagM=    0.0000000   0.0000000   2.7928460   2.7928460   2.7928460   0.0000000   0.0000000   0.0000000   0.0000000   0.0000000
 AtZNuc=   6.0000000   6.0000000   1.0000000   1.0000000   1.0000000   6.0000000   6.0000000   6.0000000   6.0000000   6.0000000

  Atom        21          22          23          24          25          26          27          28          29          30
 IAtWgt=           1          12           1          12           1           1           1          19          12           1
 AtmWgt=   1.0078250  12.0000000   1.0078250  12.0000000   1.0078250   1.0078250   1.0078250  18.9984033  12.0000000   1.0078250
 NucSpn=           1           0           1           0           1           1           1           1           0           1
 AtZEff=  -0.0000000  -0.0000000  -0.0000000  -0.0000000  -0.0000000  -0.0000000  -0.0000000  -0.0000000  -0.0000000  -0.0000000
 NQMom=    0.0000000   0.0000000   0.0000000   0.0000000   0.0000000   0.0000000   0.0000000   0.0000000   0.0000000   0.0000000
 NMagM=    2.7928460   0.0000000   2.7928460   0.0000000   2.7928460   2.7928460   2.7928460   2.6288670   0.0000000   2.7928460
 AtZNuc=   1.0000000   6.0000000   1.0000000   6.0000000   1.0000000   1.0000000   1.0000000   9.0000000   6.0000000   1.0000000

  Atom        31          32          33          34          35          36          37          38          39          40
 IAtWgt=           1           1          12          12          12           1           1          12           1           1
 AtmWgt=   1.0078250   1.0078250  12.0000000  12.0000000  12.0000000   1.0078250   1.0078250  12.0000000   1.0078250   1.0078250
 NucSpn=           1           1           0           0           0           1           1           0           1           1
 AtZEff=  -0.0000000  -0.0000000  -0.0000000  -0.0000000  -0.0000000  -0.0000000  -0.0000000  -0.0000000  -0.0000000  -0.0000000
 NQMom=    0.0000000   0.0000000   0.0000000   0.0000000   0.0000000   0.0000000   0.0000000   0.0000000   0.0000000   0.0000000
 NMagM=    2.7928460   2.7928460   0.0000000   0.0000000   0.0000000   2.7928460   2.7928460   0.0000000   2.7928460   2.7928460
 AtZNuc=   1.0000000   1.0000000   6.0000000   6.0000000   6.0000000   1.0000000   1.0000000   6.0000000   1.0000000   1.0000000

  Atom        41          42          43          44          45          46          47          48          49          50
 IAtWgt=           1           1           1           1          14          16           1          12          12          12
 AtmWgt=   1.0078250   1.0078250   1.0078250   1.0078250  14.0030740  15.9949146   1.0078250  12.0000000  12.0000000  12.0000000
 NucSpn=           1           1           1           1           2           0           1           0           0           0
 AtZEff=  -0.0000000  -0.0000000  -0.0000000  -0.0000000  -0.0000000  -0.0000000  -0.0000000  -0.0000000  -0.0000000  -0.0000000
 NQMom=    0.0000000   0.0000000   0.0000000   0.0000000   2.0440000   0.0000000   0.0000000   0.0000000   0.0000000   0.0000000
 NMagM=    2.7928460   2.7928460   2.7928460   2.7928460   0.4037610   0.0000000   2.7928460   0.0000000   0.0000000   0.0000000
 AtZNuc=   1.0000000   1.0000000   1.0000000   1.0000000   7.0000000   8.0000000   1.0000000   6.0000000   6.0000000   6.0000000

  Atom        51          52          53          54          55          56          57          58          59          60
 IAtWgt=          12          12          12           1           1          12          12           1           1          12
 AtmWgt=  12.0000000  12.0000000  12.0000000   1.0078250   1.0078250  12.0000000  12.0000000   1.0078250   1.0078250  12.0000000
 NucSpn=           0           0           0           1           1           0           0           1           1           0
 AtZEff=  -0.0000000  -0.0000000  -0.0000000  -0.0000000  -0.0000000  -0.0000000  -0.0000000  -0.0000000  -0.0000000  -0.0000000
 NQMom=    0.0000000   0.0000000   0.0000000   0.0000000   0.0000000   0.0000000   0.0000000   0.0000000   0.0000000   0.0000000
 NMagM=    0.0000000   0.0000000   0.0000000   2.7928460   2.7928460   0.0000000   0.0000000   2.7928460   2.7928460   0.0000000
 AtZNuc=   6.0000000   6.0000000   6.0000000   1.0000000   1.0000000   6.0000000   6.0000000   1.0000000   1.0000000   6.0000000

  Atom        61          62          63          64          65          66          67          68          69          70
 IAtWgt=          12           1          12          12          12          12          12          12          12          12
 AtmWgt=  12.0000000   1.0078250  12.0000000  12.0000000  12.0000000  12.0000000  12.0000000  12.0000000  12.0000000  12.0000000
 NucSpn=           0           1           0           0           0           0           0           0           0           0
 AtZEff=  -0.0000000  -0.0000000  -0.0000000  -0.0000000  -0.0000000  -0.0000000  -0.0000000  -0.0000000  -0.0000000  -0.0000000
 NQMom=    0.0000000   0.0000000   0.0000000   0.0000000   0.0000000   0.0000000   0.0000000   0.0000000   0.0000000   0.0000000
 NMagM=    0.0000000   2.7928460   0.0000000   0.0000000   0.0000000   0.0000000   0.0000000   0.0000000   0.0000000   0.0000000
 AtZNuc=   6.0000000   1.0000000   6.0000000   6.0000000   6.0000000   6.0000000   6.0000000   6.0000000   6.0000000   6.0000000

  Atom        71          72          73          74          75          76          77          78          79          80
 IAtWgt=          12           1           1          12           1           1           1          32          16          16
 AtmWgt=  12.0000000   1.0078250   1.0078250  12.0000000   1.0078250   1.0078250   1.0078250  31.9720718  15.9949146  15.9949146
 NucSpn=           0           1           1           0           1           1           1           0           0           0
 AtZEff=  -0.0000000  -0.0000000  -0.0000000  -0.0000000  -0.0000000  -0.0000000  -0.0000000  -0.0000000  -0.0000000  -0.0000000
 NQMom=    0.0000000   0.0000000   0.0000000   0.0000000   0.0000000   0.0000000   0.0000000   0.0000000   0.0000000   0.0000000
 NMagM=    0.0000000   2.7928460   2.7928460   0.0000000   2.7928460   2.7928460   2.7928460   0.0000000   0.0000000   0.0000000
 AtZNuc=   6.0000000   1.0000000   1.0000000   6.0000000   1.0000000   1.0000000   1.0000000  16.0000000   8.0000000   8.0000000

  Atom        81          82          83          84          85          86          87
 IAtWgt=          32          16          16          14           1           1           1
 AtmWgt=  31.9720718  15.9949146  15.9949146  14.0030740   1.0078250   1.0078250   1.0078250
 NucSpn=           0           0           0           2           1           1           1
 AtZEff=  -0.0000000  -0.0000000  -0.0000000  -0.0000000  -0.0000000  -0.0000000  -0.0000000
 NQMom=    0.0000000   0.0000000   0.0000000   2.0440000   0.0000000   0.0000000   0.0000000
 NMagM=    0.0000000   0.0000000   0.0000000   0.4037610   2.7928460   2.7928460   2.7928460
 AtZNuc=  16.0000000   8.0000000   8.0000000   7.0000000   1.0000000   1.0000000   1.0000000
 Leave Link  101 at Tue Feb  4 08:55:58 2025, MaxMem=  7247757312 cpu:               5.7 elap:               0.2
 (Enter /cm/shared/apps/spack/cpu/opt/spack/linux-centos8-zen/gcc-8.3.1/gaussian-16.C.01-po5bqktfeugvmjyga3v7eigbecnokxng/g16/l103.exe)

 GradGradGradGradGradGradGradGradGradGradGradGradGradGradGradGradGradGrad
 Berny optimization.
 Initialization pass.
                           ----------------------------
                           !    Initial Parameters    !
                           ! (Angstroms and Degrees)  !
 --------------------------                            --------------------------
 ! Name  Definition              Value          Derivative Info.                !
 --------------------------------------------------------------------------------
 ! R1    R(1,2)                  1.3749         estimate D2E/DX2                !
 ! R2    R(1,6)                  1.3483         estimate D2E/DX2                !
 ! R3    R(1,8)                  1.4639         estimate D2E/DX2                !
 ! R4    R(2,3)                  1.404          estimate D2E/DX2                !
 ! R5    R(2,85)                 1.0768         estimate D2E/DX2                !
 ! R6    R(3,4)                  1.3794         estimate D2E/DX2                !
 ! R7    R(3,29)                 1.4924         estimate D2E/DX2                !
 ! R8    R(4,5)                  1.4082         estimate D2E/DX2                !
 ! R9    R(4,7)                  1.0775         estimate D2E/DX2                !
 ! R10   R(5,6)                  1.3454         estimate D2E/DX2                !
 ! R11   R(5,45)                 1.3437         estimate D2E/DX2                !
 ! R12   R(6,47)                 1.0322         estimate D2E/DX2                !
 ! R13   R(8,9)                  1.4001         estimate D2E/DX2                !
 ! R14   R(8,16)                 1.3968         estimate D2E/DX2                !
 ! R15   R(9,10)                 1.3901         estimate D2E/DX2                !
 ! R16   R(9,17)                 1.4734         estimate D2E/DX2                !
 ! R17   R(10,12)                1.3825         estimate D2E/DX2                !
 ! R18   R(10,13)                1.079          estimate D2E/DX2                !
 ! R19   R(11,12)                1.3845         estimate D2E/DX2                !
 ! R20   R(11,15)                1.0772         estimate D2E/DX2                !
 ! R21   R(11,16)                1.3767         estimate D2E/DX2                !
 ! R22   R(12,14)                1.0792         estimate D2E/DX2                !
 ! R23   R(16,28)                1.3502         estimate D2E/DX2                !
 ! R24   R(17,18)                1.392          estimate D2E/DX2                !
 ! R25   R(17,19)                1.3923         estimate D2E/DX2                !
 ! R26   R(18,20)                1.3836         estimate D2E/DX2                !
 ! R27   R(18,21)                1.0808         estimate D2E/DX2                !
 ! R28   R(19,22)                1.3834         estimate D2E/DX2                !
 ! R29   R(19,23)                1.0795         estimate D2E/DX2                !
 ! R30   R(20,24)                1.3847         estimate D2E/DX2                !
 ! R31   R(20,25)                1.0805         estimate D2E/DX2                !
 ! R32   R(22,24)                1.3858         estimate D2E/DX2                !
 ! R33   R(22,26)                1.0801         estimate D2E/DX2                !
 ! R34   R(23,80)                2.1345         estimate D2E/DX2                !
 ! R35   R(24,27)                1.0804         estimate D2E/DX2                !
 ! R36   R(29,30)                1.0862         estimate D2E/DX2                !
 ! R37   R(29,31)                1.0887         estimate D2E/DX2                !
 ! R38   R(29,32)                1.0887         estimate D2E/DX2                !
 ! R39   R(33,35)                1.5296         estimate D2E/DX2                !
 ! R40   R(33,36)                1.095          estimate D2E/DX2                !
 ! R41   R(33,37)                1.0891         estimate D2E/DX2                !
 ! R42   R(33,45)                1.4572         estimate D2E/DX2                !
 ! R43   R(34,38)                1.5419         estimate D2E/DX2                !
 ! R44   R(34,39)                1.0937         estimate D2E/DX2                !
 ! R45   R(34,40)                1.0882         estimate D2E/DX2                !
 ! R46   R(34,45)                1.4489         estimate D2E/DX2                !
 ! R47   R(35,41)                1.0896         estimate D2E/DX2                !
 ! R48   R(35,42)                1.0986         estimate D2E/DX2                !
 ! R49   R(35,46)                1.4166         estimate D2E/DX2                !
 ! R50   R(38,43)                1.0918         estimate D2E/DX2                !
 ! R51   R(38,44)                1.1021         estimate D2E/DX2                !
 ! R52   R(38,46)                1.4024         estimate D2E/DX2                !
 ! R53   R(47,84)                1.9863         estimate D2E/DX2                !
 ! R54   R(48,49)                1.3669         estimate D2E/DX2                !
 ! R55   R(48,53)                1.4031         estimate D2E/DX2                !
 ! R56   R(48,54)                1.0801         estimate D2E/DX2                !
 ! R57   R(49,50)                1.4112         estimate D2E/DX2                !
 ! R58   R(49,55)                1.0794         estimate D2E/DX2                !
 ! R59   R(50,51)                1.4208         estimate D2E/DX2                !
 ! R60   R(50,56)                1.4223         estimate D2E/DX2                !
 ! R61   R(51,52)                1.411          estimate D2E/DX2                !
 ! R62   R(51,57)                1.4113         estimate D2E/DX2                !
 ! R63   R(52,53)                1.3662         estimate D2E/DX2                !
 ! R64   R(52,58)                1.0808         estimate D2E/DX2                !
 ! R65   R(53,59)                1.0802         estimate D2E/DX2                !
 ! R66   R(56,61)                1.3704         estimate D2E/DX2                !
 ! R67   R(56,63)                1.4725         estimate D2E/DX2                !
 ! R68   R(57,60)                1.3662         estimate D2E/DX2                !
 ! R69   R(57,62)                1.0806         estimate D2E/DX2                !
 ! R70   R(60,61)                1.3964         estimate D2E/DX2                !
 ! R71   R(60,87)                1.0792         estimate D2E/DX2                !
 ! R72   R(61,78)                1.7834         estimate D2E/DX2                !
 ! R73   R(63,64)                1.3706         estimate D2E/DX2                !
 ! R74   R(63,65)                1.423          estimate D2E/DX2                !
 ! R75   R(64,66)                1.3965         estimate D2E/DX2                !
 ! R76   R(64,81)                1.7868         estimate D2E/DX2                !
 ! R77   R(65,67)                1.4207         estimate D2E/DX2                !
 ! R78   R(65,68)                1.4111         estimate D2E/DX2                !
 ! R79   R(66,69)                1.3658         estimate D2E/DX2                !
 ! R80   R(66,86)                1.0783         estimate D2E/DX2                !
 ! R81   R(67,69)                1.4115         estimate D2E/DX2                !
 ! R82   R(67,70)                1.411          estimate D2E/DX2                !
 ! R83   R(68,71)                1.367          estimate D2E/DX2                !
 ! R84   R(68,72)                1.0795         estimate D2E/DX2                !
 ! R85   R(69,73)                1.0808         estimate D2E/DX2                !
 ! R86   R(70,74)                1.3662         estimate D2E/DX2                !
 ! R87   R(70,75)                1.0809         estimate D2E/DX2                !
 ! R88   R(71,74)                1.403          estimate D2E/DX2                !
 ! R89   R(71,76)                1.0802         estimate D2E/DX2                !
 ! R90   R(74,77)                1.0803         estimate D2E/DX2                !
 ! R91   R(78,79)                1.4439         estimate D2E/DX2                !
 ! R92   R(78,80)                1.4582         estimate D2E/DX2                !
 ! R93   R(78,84)                1.5838         estimate D2E/DX2                !
 ! R94   R(81,82)                1.4469         estimate D2E/DX2                !
 ! R95   R(81,83)                1.4398         estimate D2E/DX2                !
 ! R96   R(81,84)                1.5966         estimate D2E/DX2                !
 ! A1    A(2,1,6)              118.8435         estimate D2E/DX2                !
 ! A2    A(2,1,8)              126.1816         estimate D2E/DX2                !
 ! A3    A(6,1,8)              114.9287         estimate D2E/DX2                !
 ! A4    A(1,2,3)              119.2707         estimate D2E/DX2                !
 ! A5    A(1,2,85)             120.3567         estimate D2E/DX2                !
 ! A6    A(3,2,85)             120.3703         estimate D2E/DX2                !
 ! A7    A(2,3,4)              119.614          estimate D2E/DX2                !
 ! A8    A(2,3,29)             119.1241         estimate D2E/DX2                !
 ! A9    A(4,3,29)             121.2545         estimate D2E/DX2                !
 ! A10   A(3,4,5)              120.4086         estimate D2E/DX2                !
 ! A11   A(3,4,7)              119.6965         estimate D2E/DX2                !
 ! A12   A(5,4,7)              119.7925         estimate D2E/DX2                !
 ! A13   A(4,5,6)              116.7305         estimate D2E/DX2                !
 ! A14   A(4,5,45)             123.9185         estimate D2E/DX2                !
 ! A15   A(6,5,45)             119.3131         estimate D2E/DX2                !
 ! A16   A(1,6,5)              124.9803         estimate D2E/DX2                !
 ! A17   A(1,6,47)             115.6321         estimate D2E/DX2                !
 ! A18   A(5,6,47)             118.9589         estimate D2E/DX2                !
 ! A19   A(1,8,9)              123.0211         estimate D2E/DX2                !
 ! A20   A(1,8,16)             118.6403         estimate D2E/DX2                !
 ! A21   A(9,8,16)             118.2638         estimate D2E/DX2                !
 ! A22   A(8,9,10)             119.0767         estimate D2E/DX2                !
 ! A23   A(8,9,17)             121.0587         estimate D2E/DX2                !
 ! A24   A(10,9,17)            119.8509         estimate D2E/DX2                !
 ! A25   A(9,10,12)            121.231          estimate D2E/DX2                !
 ! A26   A(9,10,13)            118.6894         estimate D2E/DX2                !
 ! A27   A(12,10,13)           120.0269         estimate D2E/DX2                !
 ! A28   A(12,11,15)           122.9563         estimate D2E/DX2                !
 ! A29   A(12,11,16)           118.2946         estimate D2E/DX2                !
 ! A30   A(15,11,16)           118.7083         estimate D2E/DX2                !
 ! A31   A(10,12,11)           120.3935         estimate D2E/DX2                !
 ! A32   A(10,12,14)           119.8583         estimate D2E/DX2                !
 ! A33   A(11,12,14)           119.7476         estimate D2E/DX2                !
 ! A34   A(8,16,11)            122.6792         estimate D2E/DX2                !
 ! A35   A(8,16,28)            118.09           estimate D2E/DX2                !
 ! A36   A(11,16,28)           119.0376         estimate D2E/DX2                !
 ! A37   A(9,17,18)            119.8993         estimate D2E/DX2                !
 ! A38   A(9,17,19)            120.6795         estimate D2E/DX2                !
 ! A39   A(18,17,19)           119.4195         estimate D2E/DX2                !
 ! A40   A(17,18,20)           120.3702         estimate D2E/DX2                !
 ! A41   A(17,18,21)           119.4852         estimate D2E/DX2                !
 ! A42   A(20,18,21)           120.1376         estimate D2E/DX2                !
 ! A43   A(17,19,22)           119.8953         estimate D2E/DX2                !
 ! A44   A(17,19,23)           119.2344         estimate D2E/DX2                !
 ! A45   A(22,19,23)           120.8299         estimate D2E/DX2                !
 ! A46   A(18,20,24)           120.0255         estimate D2E/DX2                !
 ! A47   A(18,20,25)           119.8743         estimate D2E/DX2                !
 ! A48   A(24,20,25)           120.1            estimate D2E/DX2                !
 ! A49   A(19,22,24)           120.4797         estimate D2E/DX2                !
 ! A50   A(19,22,26)           119.5819         estimate D2E/DX2                !
 ! A51   A(24,22,26)           119.938          estimate D2E/DX2                !
 ! A52   A(20,24,22)           119.796          estimate D2E/DX2                !
 ! A53   A(20,24,27)           119.9995         estimate D2E/DX2                !
 ! A54   A(22,24,27)           120.2017         estimate D2E/DX2                !
 ! A55   A(3,29,30)            111.5476         estimate D2E/DX2                !
 ! A56   A(3,29,31)            109.6459         estimate D2E/DX2                !
 ! A57   A(3,29,32)            110.0903         estimate D2E/DX2                !
 ! A58   A(30,29,31)           108.9944         estimate D2E/DX2                !
 ! A59   A(30,29,32)           108.9553         estimate D2E/DX2                !
 ! A60   A(31,29,32)           107.5116         estimate D2E/DX2                !
 ! A61   A(35,33,36)           108.634          estimate D2E/DX2                !
 ! A62   A(35,33,37)           110.9418         estimate D2E/DX2                !
 ! A63   A(35,33,45)           110.247          estimate D2E/DX2                !
 ! A64   A(36,33,37)           108.3012         estimate D2E/DX2                !
 ! A65   A(36,33,45)           106.498          estimate D2E/DX2                !
 ! A66   A(37,33,45)           112.0437         estimate D2E/DX2                !
 ! A67   A(38,34,39)           109.4512         estimate D2E/DX2                !
 ! A68   A(38,34,40)           109.629          estimate D2E/DX2                !
 ! A69   A(38,34,45)           108.0143         estimate D2E/DX2                !
 ! A70   A(39,34,40)           109.4872         estimate D2E/DX2                !
 ! A71   A(39,34,45)           108.8742         estimate D2E/DX2                !
 ! A72   A(40,34,45)           111.3514         estimate D2E/DX2                !
 ! A73   A(33,35,41)           110.3217         estimate D2E/DX2                !
 ! A74   A(33,35,42)           110.3444         estimate D2E/DX2                !
 ! A75   A(33,35,46)           109.7086         estimate D2E/DX2                !
 ! A76   A(41,35,42)           108.4205         estimate D2E/DX2                !
 ! A77   A(41,35,46)           107.5015         estimate D2E/DX2                !
 ! A78   A(42,35,46)           110.4936         estimate D2E/DX2                !
 ! A79   A(34,38,43)           110.3396         estimate D2E/DX2                !
 ! A80   A(34,38,44)           108.6912         estimate D2E/DX2                !
 ! A81   A(34,38,46)           111.7496         estimate D2E/DX2                !
 ! A82   A(43,38,44)           109.2982         estimate D2E/DX2                !
 ! A83   A(43,38,46)           106.3582         estimate D2E/DX2                !
 ! A84   A(44,38,46)           110.372          estimate D2E/DX2                !
 ! A85   A(5,45,33)            122.978          estimate D2E/DX2                !
 ! A86   A(5,45,34)            122.5546         estimate D2E/DX2                !
 ! A87   A(33,45,34)           110.5633         estimate D2E/DX2                !
 ! A88   A(35,46,38)           111.4875         estimate D2E/DX2                !
 ! A89   A(6,47,84)            155.6904         estimate D2E/DX2                !
 ! A90   A(49,48,53)           120.4774         estimate D2E/DX2                !
 ! A91   A(49,48,54)           120.1293         estimate D2E/DX2                !
 ! A92   A(53,48,54)           119.3927         estimate D2E/DX2                !
 ! A93   A(48,49,50)           120.8028         estimate D2E/DX2                !
 ! A94   A(48,49,55)           120.286          estimate D2E/DX2                !
 ! A95   A(50,49,55)           118.9089         estimate D2E/DX2                !
 ! A96   A(49,50,51)           118.7441         estimate D2E/DX2                !
 ! A97   A(49,50,56)           122.2894         estimate D2E/DX2                !
 ! A98   A(51,50,56)           118.9415         estimate D2E/DX2                !
 ! A99   A(50,51,52)           118.8994         estimate D2E/DX2                !
 ! A100  A(50,51,57)           119.6265         estimate D2E/DX2                !
 ! A101  A(52,51,57)           121.4707         estimate D2E/DX2                !
 ! A102  A(51,52,53)           120.9428         estimate D2E/DX2                !
 ! A103  A(51,52,58)           118.4863         estimate D2E/DX2                !
 ! A104  A(53,52,58)           120.5687         estimate D2E/DX2                !
 ! A105  A(48,53,52)           120.1056         estimate D2E/DX2                !
 ! A106  A(48,53,59)           119.4829         estimate D2E/DX2                !
 ! A107  A(52,53,59)           120.4083         estimate D2E/DX2                !
 ! A108  A(50,56,61)           118.9982         estimate D2E/DX2                !
 ! A109  A(50,56,63)           121.4957         estimate D2E/DX2                !
 ! A110  A(61,56,63)           119.4917         estimate D2E/DX2                !
 ! A111  A(51,57,60)           120.3234         estimate D2E/DX2                !
 ! A112  A(51,57,62)           118.8341         estimate D2E/DX2                !
 ! A113  A(60,57,62)           120.833          estimate D2E/DX2                !
 ! A114  A(57,60,61)           119.8988         estimate D2E/DX2                !
 ! A115  A(57,60,87)           122.5207         estimate D2E/DX2                !
 ! A116  A(61,60,87)           117.5761         estimate D2E/DX2                !
 ! A117  A(56,61,60)           122.1603         estimate D2E/DX2                !
 ! A118  A(56,61,78)           118.5972         estimate D2E/DX2                !
 ! A119  A(60,61,78)           119.0555         estimate D2E/DX2                !
 ! A120  A(56,63,64)           119.6067         estimate D2E/DX2                !
 ! A121  A(56,63,65)           121.335          estimate D2E/DX2                !
 ! A122  A(64,63,65)           119.0554         estimate D2E/DX2                !
 ! A123  A(63,64,66)           121.9643         estimate D2E/DX2                !
 ! A124  A(63,64,81)           119.6002         estimate D2E/DX2                !
 ! A125  A(66,64,81)           118.2411         estimate D2E/DX2                !
 ! A126  A(63,65,67)           118.9875         estimate D2E/DX2                !
 ! A127  A(63,65,68)           122.2746         estimate D2E/DX2                !
 ! A128  A(67,65,68)           118.7171         estimate D2E/DX2                !
 ! A129  A(64,66,69)           120.0844         estimate D2E/DX2                !
 ! A130  A(64,66,86)           117.2359         estimate D2E/DX2                !
 ! A131  A(69,66,86)           122.6709         estimate D2E/DX2                !
 ! A132  A(65,67,69)           119.5647         estimate D2E/DX2                !
 ! A133  A(65,67,70)           118.9153         estimate D2E/DX2                !
 ! A134  A(69,67,70)           121.5195         estimate D2E/DX2                !
 ! A135  A(65,68,71)           120.8257         estimate D2E/DX2                !
 ! A136  A(65,68,72)           118.9049         estimate D2E/DX2                !
 ! A137  A(71,68,72)           120.2676         estimate D2E/DX2                !
 ! A138  A(66,69,67)           120.2832         estimate D2E/DX2                !
 ! A139  A(66,69,73)           120.8975         estimate D2E/DX2                !
 ! A140  A(67,69,73)           118.8152         estimate D2E/DX2                !
 ! A141  A(67,70,74)           120.955          estimate D2E/DX2                !
 ! A142  A(67,70,75)           118.4846         estimate D2E/DX2                !
 ! A143  A(74,70,75)           120.5595         estimate D2E/DX2                !
 ! A144  A(68,71,74)           120.4752         estimate D2E/DX2                !
 ! A145  A(68,71,76)           120.1305         estimate D2E/DX2                !
 ! A146  A(74,71,76)           119.394          estimate D2E/DX2                !
 ! A147  A(70,74,71)           120.086          estimate D2E/DX2                !
 ! A148  A(70,74,77)           120.4168         estimate D2E/DX2                !
 ! A149  A(71,74,77)           119.495          estimate D2E/DX2                !
 ! A150  A(61,78,79)           109.2591         estimate D2E/DX2                !
 ! A151  A(61,78,80)           107.7687         estimate D2E/DX2                !
 ! A152  A(61,78,84)           106.5291         estimate D2E/DX2                !
 ! A153  A(79,78,80)           114.3925         estimate D2E/DX2                !
 ! A154  A(79,78,84)           112.4233         estimate D2E/DX2                !
 ! A155  A(80,78,84)           106.0733         estimate D2E/DX2                !
 ! A156  A(23,80,78)           115.5071         estimate D2E/DX2                !
 ! A157  A(64,81,82)           109.587          estimate D2E/DX2                !
 ! A158  A(64,81,83)           108.5336         estimate D2E/DX2                !
 ! A159  A(64,81,84)           104.3569         estimate D2E/DX2                !
 ! A160  A(82,81,83)           115.6307         estimate D2E/DX2                !
 ! A161  A(82,81,84)           109.7201         estimate D2E/DX2                !
 ! A162  A(83,81,84)           108.4052         estimate D2E/DX2                !
 ! A163  A(47,84,78)            99.8985         estimate D2E/DX2                !
 ! A164  A(47,84,81)           139.2952         estimate D2E/DX2                !
 ! A165  A(78,84,81)           118.1367         estimate D2E/DX2                !
 ! A166  L(19,23,80,1,-1)      173.2883         estimate D2E/DX2                !
 ! A167  L(19,23,80,1,-2)      167.2522         estimate D2E/DX2                !
 ! D1    D(6,1,2,3)              1.8263         estimate D2E/DX2                !
 ! D2    D(6,1,2,85)          -178.7227         estimate D2E/DX2                !
 ! D3    D(8,1,2,3)            179.2224         estimate D2E/DX2                !
 ! D4    D(8,1,2,85)            -1.3266         estimate D2E/DX2                !
 ! D5    D(2,1,6,5)             -4.2468         estimate D2E/DX2                !
 ! D6    D(2,1,6,47)          -176.62           estimate D2E/DX2                !
 ! D7    D(8,1,6,5)            178.0707         estimate D2E/DX2                !
 ! D8    D(8,1,6,47)             5.6975         estimate D2E/DX2                !
 ! D9    D(2,1,8,9)             49.8031         estimate D2E/DX2                !
 ! D10   D(2,1,8,16)          -133.3992         estimate D2E/DX2                !
 ! D11   D(6,1,8,9)           -132.712          estimate D2E/DX2                !
 ! D12   D(6,1,8,16)            44.0857         estimate D2E/DX2                !
 ! D13   D(1,2,3,4)             -0.3641         estimate D2E/DX2                !
 ! D14   D(1,2,3,29)           178.6567         estimate D2E/DX2                !
 ! D15   D(85,2,3,4)          -179.815          estimate D2E/DX2                !
 ! D16   D(85,2,3,29)           -0.7942         estimate D2E/DX2                !
 ! D17   D(2,3,4,5)              0.9855         estimate D2E/DX2                !
 ! D18   D(2,3,4,7)            177.2983         estimate D2E/DX2                !
 ! D19   D(29,3,4,5)          -178.0139         estimate D2E/DX2                !
 ! D20   D(29,3,4,7)            -1.7011         estimate D2E/DX2                !
 ! D21   D(2,3,29,30)         -179.8195         estimate D2E/DX2                !
 ! D22   D(2,3,29,31)          -58.9875         estimate D2E/DX2                !
 ! D23   D(2,3,29,32)           59.0966         estimate D2E/DX2                !
 ! D24   D(4,3,29,30)           -0.8154         estimate D2E/DX2                !
 ! D25   D(4,3,29,31)          120.0167         estimate D2E/DX2                !
 ! D26   D(4,3,29,32)         -121.8992         estimate D2E/DX2                !
 ! D27   D(3,4,5,6)             -3.0085         estimate D2E/DX2                !
 ! D28   D(3,4,5,45)           174.7308         estimate D2E/DX2                !
 ! D29   D(7,4,5,6)           -179.3177         estimate D2E/DX2                !
 ! D30   D(7,4,5,45)            -1.5784         estimate D2E/DX2                !
 ! D31   D(4,5,6,1)              4.7665         estimate D2E/DX2                !
 ! D32   D(4,5,6,47)           176.9063         estimate D2E/DX2                !
 ! D33   D(45,5,6,1)          -173.082          estimate D2E/DX2                !
 ! D34   D(45,5,6,47)           -0.9423         estimate D2E/DX2                !
 ! D35   D(4,5,45,33)         -166.0963         estimate D2E/DX2                !
 ! D36   D(4,5,45,34)           38.2604         estimate D2E/DX2                !
 ! D37   D(6,5,45,33)           11.588          estimate D2E/DX2                !
 ! D38   D(6,5,45,34)         -144.0552         estimate D2E/DX2                !
 ! D39   D(1,6,47,84)           41.9815         estimate D2E/DX2                !
 ! D40   D(5,6,47,84)         -130.8791         estimate D2E/DX2                !
 ! D41   D(1,8,9,10)           175.699          estimate D2E/DX2                !
 ! D42   D(1,8,9,17)            -2.952          estimate D2E/DX2                !
 ! D43   D(16,8,9,10)           -1.1101         estimate D2E/DX2                !
 ! D44   D(16,8,9,17)         -179.761          estimate D2E/DX2                !
 ! D45   D(1,8,16,11)         -176.3133         estimate D2E/DX2                !
 ! D46   D(1,8,16,28)            8.7918         estimate D2E/DX2                !
 ! D47   D(9,8,16,11)            0.6383         estimate D2E/DX2                !
 ! D48   D(9,8,16,28)         -174.2566         estimate D2E/DX2                !
 ! D49   D(8,9,10,12)           -0.3897         estimate D2E/DX2                !
 ! D50   D(8,9,10,13)         -177.7494         estimate D2E/DX2                !
 ! D51   D(17,9,10,12)         178.2778         estimate D2E/DX2                !
 ! D52   D(17,9,10,13)           0.9182         estimate D2E/DX2                !
 ! D53   D(8,9,17,18)         -125.6469         estimate D2E/DX2                !
 ! D54   D(8,9,17,19)           54.8262         estimate D2E/DX2                !
 ! D55   D(10,9,17,18)          55.7125         estimate D2E/DX2                !
 ! D56   D(10,9,17,19)        -123.8144         estimate D2E/DX2                !
 ! D57   D(9,10,12,11)           2.4268         estimate D2E/DX2                !
 ! D58   D(9,10,12,14)        -177.8546         estimate D2E/DX2                !
 ! D59   D(13,10,12,11)        179.7516         estimate D2E/DX2                !
 ! D60   D(13,10,12,14)         -0.5299         estimate D2E/DX2                !
 ! D61   D(15,11,12,10)        179.5066         estimate D2E/DX2                !
 ! D62   D(15,11,12,14)         -0.2123         estimate D2E/DX2                !
 ! D63   D(16,11,12,10)         -2.8483         estimate D2E/DX2                !
 ! D64   D(16,11,12,14)        177.4329         estimate D2E/DX2                !
 ! D65   D(12,11,16,8)           1.3374         estimate D2E/DX2                !
 ! D66   D(12,11,16,28)        176.186          estimate D2E/DX2                !
 ! D67   D(15,11,16,8)         179.0846         estimate D2E/DX2                !
 ! D68   D(15,11,16,28)         -6.0668         estimate D2E/DX2                !
 ! D69   D(9,17,18,20)         179.2142         estimate D2E/DX2                !
 ! D70   D(9,17,18,21)           0.1701         estimate D2E/DX2                !
 ! D71   D(19,17,18,20)         -1.2529         estimate D2E/DX2                !
 ! D72   D(19,17,18,21)        179.703          estimate D2E/DX2                !
 ! D73   D(9,17,19,22)        -179.6988         estimate D2E/DX2                !
 ! D74   D(9,17,19,23)           2.5938         estimate D2E/DX2                !
 ! D75   D(18,17,19,22)          0.772          estimate D2E/DX2                !
 ! D76   D(18,17,19,23)       -176.9354         estimate D2E/DX2                !
 ! D77   D(17,18,20,24)          0.6568         estimate D2E/DX2                !
 ! D78   D(17,18,20,25)       -179.5147         estimate D2E/DX2                !
 ! D79   D(21,18,20,24)        179.6946         estimate D2E/DX2                !
 ! D80   D(21,18,20,25)         -0.4769         estimate D2E/DX2                !
 ! D81   D(17,19,22,24)          0.3021         estimate D2E/DX2                !
 ! D82   D(17,19,22,26)       -179.4647         estimate D2E/DX2                !
 ! D83   D(23,19,22,24)        177.9722         estimate D2E/DX2                !
 ! D84   D(23,19,22,26)         -1.7945         estimate D2E/DX2                !
 ! D85   D(17,19,80,78)         39.2494         estimate D2E/DX2                !
 ! D86   D(22,19,80,78)       -135.9734         estimate D2E/DX2                !
 ! D87   D(18,20,24,22)          0.424          estimate D2E/DX2                !
 ! D88   D(18,20,24,27)        179.8176         estimate D2E/DX2                !
 ! D89   D(25,20,24,22)       -179.4041         estimate D2E/DX2                !
 ! D90   D(25,20,24,27)         -0.0105         estimate D2E/DX2                !
 ! D91   D(19,22,24,20)         -0.9051         estimate D2E/DX2                !
 ! D92   D(19,22,24,27)        179.7026         estimate D2E/DX2                !
 ! D93   D(26,22,24,20)        178.8608         estimate D2E/DX2                !
 ! D94   D(26,22,24,27)         -0.5315         estimate D2E/DX2                !
 ! D95   D(36,33,35,41)        -59.1185         estimate D2E/DX2                !
 ! D96   D(36,33,35,42)       -178.9003         estimate D2E/DX2                !
 ! D97   D(36,33,35,46)         59.131          estimate D2E/DX2                !
 ! D98   D(37,33,35,41)         59.8198         estimate D2E/DX2                !
 ! D99   D(37,33,35,42)        -59.962          estimate D2E/DX2                !
 ! D100  D(37,33,35,46)        178.0693         estimate D2E/DX2                !
 ! D101  D(45,33,35,41)       -175.4657         estimate D2E/DX2                !
 ! D102  D(45,33,35,42)         64.7525         estimate D2E/DX2                !
 ! D103  D(45,33,35,46)        -57.2162         estimate D2E/DX2                !
 ! D104  D(35,33,45,5)         -99.9942         estimate D2E/DX2                !
 ! D105  D(35,33,45,34)         58.2116         estimate D2E/DX2                !
 ! D106  D(36,33,45,5)         142.332          estimate D2E/DX2                !
 ! D107  D(36,33,45,34)        -59.4621         estimate D2E/DX2                !
 ! D108  D(37,33,45,5)          24.0865         estimate D2E/DX2                !
 ! D109  D(37,33,45,34)       -177.7076         estimate D2E/DX2                !
 ! D110  D(39,34,38,43)         57.5251         estimate D2E/DX2                !
 ! D111  D(39,34,38,44)        177.3595         estimate D2E/DX2                !
 ! D112  D(39,34,38,46)        -60.5924         estimate D2E/DX2                !
 ! D113  D(40,34,38,43)        -62.579          estimate D2E/DX2                !
 ! D114  D(40,34,38,44)         57.2554         estimate D2E/DX2                !
 ! D115  D(40,34,38,46)        179.3035         estimate D2E/DX2                !
 ! D116  D(45,34,38,43)        175.9237         estimate D2E/DX2                !
 ! D117  D(45,34,38,44)        -64.2419         estimate D2E/DX2                !
 ! D118  D(45,34,38,46)         57.8062         estimate D2E/DX2                !
 ! D119  D(38,34,45,5)         101.3494         estimate D2E/DX2                !
 ! D120  D(38,34,45,33)        -56.9651         estimate D2E/DX2                !
 ! D121  D(39,34,45,5)        -139.884          estimate D2E/DX2                !
 ! D122  D(39,34,45,33)         61.8015         estimate D2E/DX2                !
 ! D123  D(40,34,45,5)         -19.075          estimate D2E/DX2                !
 ! D124  D(40,34,45,33)       -177.3895         estimate D2E/DX2                !
 ! D125  D(33,35,46,38)         58.0726         estimate D2E/DX2                !
 ! D126  D(41,35,46,38)        178.057          estimate D2E/DX2                !
 ! D127  D(42,35,46,38)        -63.8068         estimate D2E/DX2                !
 ! D128  D(34,38,46,35)        -59.3336         estimate D2E/DX2                !
 ! D129  D(43,38,46,35)       -179.8052         estimate D2E/DX2                !
 ! D130  D(44,38,46,35)         61.7439         estimate D2E/DX2                !
 ! D131  D(6,47,84,78)          35.6068         estimate D2E/DX2                !
 ! D132  D(6,47,84,81)        -164.8616         estimate D2E/DX2                !
 ! D133  D(53,48,49,50)          0.0706         estimate D2E/DX2                !
 ! D134  D(53,48,49,55)       -179.369          estimate D2E/DX2                !
 ! D135  D(54,48,49,50)        179.7948         estimate D2E/DX2                !
 ! D136  D(54,48,49,55)          0.3552         estimate D2E/DX2                !
 ! D137  D(49,48,53,52)          0.9062         estimate D2E/DX2                !
 ! D138  D(49,48,53,59)       -179.7351         estimate D2E/DX2                !
 ! D139  D(54,48,53,52)       -178.82           estimate D2E/DX2                !
 ! D140  D(54,48,53,59)          0.5387         estimate D2E/DX2                !
 ! D141  D(48,49,50,51)         -1.4764         estimate D2E/DX2                !
 ! D142  D(48,49,50,56)       -179.6343         estimate D2E/DX2                !
 ! D143  D(55,49,50,51)        177.9709         estimate D2E/DX2                !
 ! D144  D(55,49,50,56)         -0.187          estimate D2E/DX2                !
 ! D145  D(49,50,51,52)          1.9095         estimate D2E/DX2                !
 ! D146  D(49,50,51,57)       -177.4309         estimate D2E/DX2                !
 ! D147  D(56,50,51,52)       -179.8699         estimate D2E/DX2                !
 ! D148  D(56,50,51,57)          0.7897         estimate D2E/DX2                !
 ! D149  D(49,50,56,61)        175.9068         estimate D2E/DX2                !
 ! D150  D(49,50,56,63)         -2.7009         estimate D2E/DX2                !
 ! D151  D(51,50,56,61)         -2.2476         estimate D2E/DX2                !
 ! D152  D(51,50,56,63)        179.1446         estimate D2E/DX2                !
 ! D153  D(50,51,52,53)         -0.9814         estimate D2E/DX2                !
 ! D154  D(50,51,52,58)        179.549          estimate D2E/DX2                !
 ! D155  D(57,51,52,53)        178.3463         estimate D2E/DX2                !
 ! D156  D(57,51,52,58)         -1.1233         estimate D2E/DX2                !
 ! D157  D(50,51,57,60)          1.2371         estimate D2E/DX2                !
 ! D158  D(50,51,57,62)       -179.8772         estimate D2E/DX2                !
 ! D159  D(52,51,57,60)       -178.0858         estimate D2E/DX2                !
 ! D160  D(52,51,57,62)          0.7999         estimate D2E/DX2                !
 ! D161  D(51,52,53,48)         -0.4321         estimate D2E/DX2                !
 ! D162  D(51,52,53,59)       -179.7848         estimate D2E/DX2                !
 ! D163  D(58,52,53,48)        179.0265         estimate D2E/DX2                !
 ! D164  D(58,52,53,59)         -0.3262         estimate D2E/DX2                !
 ! D165  D(50,56,61,60)          1.7611         estimate D2E/DX2                !
 ! D166  D(50,56,61,78)       -173.2185         estimate D2E/DX2                !
 ! D167  D(63,56,61,60)       -179.6027         estimate D2E/DX2                !
 ! D168  D(63,56,61,78)          5.4177         estimate D2E/DX2                !
 ! D169  D(50,56,63,64)        115.6862         estimate D2E/DX2                !
 ! D170  D(50,56,63,65)        -64.9436         estimate D2E/DX2                !
 ! D171  D(61,56,63,64)        -62.9148         estimate D2E/DX2                !
 ! D172  D(61,56,63,65)        116.4553         estimate D2E/DX2                !
 ! D173  D(51,57,60,61)         -1.7887         estimate D2E/DX2                !
 ! D174  D(51,57,60,87)        178.997          estimate D2E/DX2                !
 ! D175  D(62,57,60,61)        179.3482         estimate D2E/DX2                !
 ! D176  D(62,57,60,87)          0.1339         estimate D2E/DX2                !
 ! D177  D(57,60,61,56)          0.2745         estimate D2E/DX2                !
 ! D178  D(57,60,61,78)        175.2319         estimate D2E/DX2                !
 ! D179  D(87,60,61,56)        179.5271         estimate D2E/DX2                !
 ! D180  D(87,60,61,78)         -5.5155         estimate D2E/DX2                !
 ! D181  D(56,61,78,79)        -49.8727         estimate D2E/DX2                !
 ! D182  D(56,61,78,80)       -174.717          estimate D2E/DX2                !
 ! D183  D(56,61,78,84)         71.8067         estimate D2E/DX2                !
 ! D184  D(60,61,78,79)        134.9889         estimate D2E/DX2                !
 ! D185  D(60,61,78,80)         10.1445         estimate D2E/DX2                !
 ! D186  D(60,61,78,84)       -103.3318         estimate D2E/DX2                !
 ! D187  D(56,63,64,66)       -178.2289         estimate D2E/DX2                !
 ! D188  D(56,63,64,81)          6.929          estimate D2E/DX2                !
 ! D189  D(65,63,64,66)          2.3865         estimate D2E/DX2                !
 ! D190  D(65,63,64,81)       -172.4556         estimate D2E/DX2                !
 ! D191  D(56,63,65,67)        178.281          estimate D2E/DX2                !
 ! D192  D(56,63,65,68)         -3.4004         estimate D2E/DX2                !
 ! D193  D(64,63,65,67)         -2.3454         estimate D2E/DX2                !
 ! D194  D(64,63,65,68)        175.9732         estimate D2E/DX2                !
 ! D195  D(63,64,66,69)         -0.4286         estimate D2E/DX2                !
 ! D196  D(63,64,66,86)        178.5209         estimate D2E/DX2                !
 ! D197  D(81,64,66,69)        174.4808         estimate D2E/DX2                !
 ! D198  D(81,64,66,86)         -6.5697         estimate D2E/DX2                !
 ! D199  D(63,64,81,82)        -45.78           estimate D2E/DX2                !
 ! D200  D(63,64,81,83)       -172.904          estimate D2E/DX2                !
 ! D201  D(63,64,81,84)         71.657          estimate D2E/DX2                !
 ! D202  D(66,64,81,82)        139.1867         estimate D2E/DX2                !
 ! D203  D(66,64,81,83)         12.0627         estimate D2E/DX2                !
 ! D204  D(66,64,81,84)       -103.3763         estimate D2E/DX2                !
 ! D205  D(63,65,67,69)          0.4389         estimate D2E/DX2                !
 ! D206  D(63,65,67,70)       -179.8055         estimate D2E/DX2                !
 ! D207  D(68,65,67,69)       -177.9401         estimate D2E/DX2                !
 ! D208  D(68,65,67,70)          1.8155         estimate D2E/DX2                !
 ! D209  D(63,65,68,71)       -179.775          estimate D2E/DX2                !
 ! D210  D(63,65,68,72)         -0.2735         estimate D2E/DX2                !
 ! D211  D(67,65,68,71)         -1.452          estimate D2E/DX2                !
 ! D212  D(67,65,68,72)        178.0495         estimate D2E/DX2                !
 ! D213  D(64,66,69,67)         -1.5578         estimate D2E/DX2                !
 ! D214  D(64,66,69,73)        179.1831         estimate D2E/DX2                !
 ! D215  D(86,66,69,67)        179.5518         estimate D2E/DX2                !
 ! D216  D(86,66,69,73)          0.2927         estimate D2E/DX2                !
 ! D217  D(65,67,69,66)          1.5188         estimate D2E/DX2                !
 ! D218  D(65,67,69,73)       -179.2069         estimate D2E/DX2                !
 ! D219  D(70,67,69,66)       -178.2302         estimate D2E/DX2                !
 ! D220  D(70,67,69,73)          1.0442         estimate D2E/DX2                !
 ! D221  D(65,67,70,74)         -0.8753         estimate D2E/DX2                !
 ! D222  D(65,67,70,75)        179.4816         estimate D2E/DX2                !
 ! D223  D(69,67,70,74)        178.8753         estimate D2E/DX2                !
 ! D224  D(69,67,70,75)         -0.7679         estimate D2E/DX2                !
 ! D225  D(65,68,71,74)          0.107          estimate D2E/DX2                !
 ! D226  D(65,68,71,76)        179.8968         estimate D2E/DX2                !
 ! D227  D(72,68,71,74)       -179.3877         estimate D2E/DX2                !
 ! D228  D(72,68,71,76)          0.4021         estimate D2E/DX2                !
 ! D229  D(67,70,74,71)         -0.4792         estimate D2E/DX2                !
 ! D230  D(67,70,74,77)       -179.931          estimate D2E/DX2                !
 ! D231  D(75,70,74,71)        179.1566         estimate D2E/DX2                !
 ! D232  D(75,70,74,77)         -0.2953         estimate D2E/DX2                !
 ! D233  D(68,71,74,70)          0.8805         estimate D2E/DX2                !
 ! D234  D(68,71,74,77)       -179.6626         estimate D2E/DX2                !
 ! D235  D(76,71,74,70)       -178.9108         estimate D2E/DX2                !
 ! D236  D(76,71,74,77)          0.5461         estimate D2E/DX2                !
 ! D237  D(61,78,80,23)        136.862          estimate D2E/DX2                !
 ! D238  D(79,78,80,23)         15.1514         estimate D2E/DX2                !
 ! D239  D(84,78,80,23)       -109.357          estimate D2E/DX2                !
 ! D240  D(61,78,84,47)        127.1813         estimate D2E/DX2                !
 ! D241  D(61,78,84,81)        -37.8306         estimate D2E/DX2                !
 ! D242  D(79,78,84,47)       -113.1713         estimate D2E/DX2                !
 ! D243  D(79,78,84,81)         81.8167         estimate D2E/DX2                !
 ! D244  D(80,78,84,47)         12.5494         estimate D2E/DX2                !
 ! D245  D(80,78,84,81)       -152.4625         estimate D2E/DX2                !
 ! D246  D(64,81,84,47)        161.9457         estimate D2E/DX2                !
 ! D247  D(64,81,84,78)        -41.0492         estimate D2E/DX2                !
 ! D248  D(82,81,84,47)        -80.709          estimate D2E/DX2                !
 ! D249  D(82,81,84,78)         76.296          estimate D2E/DX2                !
 ! D250  D(83,81,84,47)         46.4168         estimate D2E/DX2                !
 ! D251  D(83,81,84,78)       -156.5782         estimate D2E/DX2                !
 --------------------------------------------------------------------------------
 Trust Radius=3.00D-01 FncErr=1.00D-07 GrdErr=1.00D-06 EigMax=2.50D+02 EigMin=1.00D-04
 Number of steps in this run=    522 maximum allowed number of steps=    522.
 GradGradGradGradGradGradGradGradGradGradGradGradGradGradGradGradGradGrad

 Leave Link  103 at Tue Feb  4 08:55:58 2025, MaxMem=  7247757312 cpu:               0.3 elap:               0.0
 (Enter /cm/shared/apps/spack/cpu/opt/spack/linux-centos8-zen/gcc-8.3.1/gaussian-16.C.01-po5bqktfeugvmjyga3v7eigbecnokxng/g16/l202.exe)
 Symmetry turned off by external request.
 Stoichiometry    C42H34FN3O5S2
 Framework group  C1[X(C42H34FN3O5S2)]
 Deg. of freedom   255
 Full point group                 C1      NOp   1
                          Input orientation:                          
 ---------------------------------------------------------------------
 Center     Atomic      Atomic             Coordinates (Angstroms)
 Number     Number       Type             X           Y           Z
 ---------------------------------------------------------------------
      1          6           0        3.440970    0.329720    0.263410
      2          6           0        4.716250    0.227880   -0.240080
      3          6           0        5.387420   -1.003000   -0.165550
      4          6           0        4.762280   -2.086120    0.416560
      5          6           0        3.450800   -1.968600    0.915920
      6          7           0        2.884840   -0.749820    0.849320
      7          1           0        5.258670   -3.042320    0.435440
      8          6           0        2.612090    1.536260    0.279780
      9          6           0        2.402650    2.333450   -0.851950
     10          6           0        1.528190    3.410710   -0.767040
     11          6           0        1.087770    2.947910    1.547420
     12          6           0        0.860010    3.700690    0.408040
     13          1           0        1.343170    3.998750   -1.652630
     14          1           0        0.159910    4.521360    0.439550
     15          1           0        0.596260    3.142170    2.486070
     16          6           0        1.946010    1.875000    1.459940
     17          6           0        3.069720    2.029330   -2.130000
     18          6           0        3.825700    3.008480   -2.768370
     19          6           0        2.944920    0.772020   -2.714950
     20          6           0        4.469540    2.728580   -3.960610
     21          1           0        3.919320    3.986380   -2.317630
     22          6           0        3.583330    0.502100   -3.912150
     23          1           0        2.317680    0.030880   -2.243040
     24          6           0        4.353150    1.473010   -4.532780
     25          1           0        5.060640    3.492220   -4.445230
     26          1           0        3.476000   -0.472210   -4.365850
     27          1           0        4.853680    1.255810   -5.465280
     28          9           0        2.239630    1.177730    2.578290
     29          6           0        6.759920   -1.117870   -0.740180
     30          1           0        7.160760   -2.119990   -0.618470
     31          1           0        6.734440   -0.872790   -1.800660
     32          1           0        7.428650   -0.408290   -0.255960
     33          6           0        1.302590   -2.928840    1.639630
     34          6           0        3.335290   -4.051380    2.200060
     35          6           0        1.022210   -2.682470    3.122960
     36          1           0        0.893900   -3.906570    1.364000
     37          1           0        0.822840   -2.171090    1.021680
     38          6           0        3.003500   -3.774590    3.680170
     39          1           0        2.900950   -5.010050    1.902560
     40          1           0        4.414860   -4.085230    2.067580
     41          1           0       -0.050020   -2.709560    3.315000
     42          1           0        1.404300   -1.697880    3.425500
     43          1           0        3.374490   -4.585320    4.310260
     44          1           0        3.486380   -2.830330    3.979750
     45          7           0        2.738690   -2.998900    1.402710
     46          8           0        1.619900   -3.706110    3.898560
     47          1           0        1.907510   -0.634900    1.161000
     48          6           0       -6.415700   -1.825650   -0.050420
     49          6           0       -5.323400   -1.003930   -0.054340
     50          6           0       -4.051530   -1.494290   -0.419420
     51          6           0       -3.919300   -2.868960   -0.753490
     52          6           0       -5.069880   -3.685750   -0.748160
     53          6           0       -6.291370   -3.176400   -0.409100
     54          1           0       -7.383490   -1.439650    0.234090
     55          1           0       -5.420680    0.032230    0.231920
     56          6           0       -2.892770   -0.669520   -0.427230
     57          6           0       -2.646520   -3.391100   -1.068440
     58          1           0       -4.962850   -4.728760   -1.010510
     59          1           0       -7.166000   -3.810360   -0.404560
     60          6           0       -1.542260   -2.587730   -1.028550
     61          6           0       -1.677010   -1.234620   -0.711060
     62          1           0       -2.560980   -4.437880   -1.322600
     63          6           0       -2.968160    0.766060   -0.108380
     64          6           0       -2.328250    1.247120    1.004100
     65          6           0       -3.683050    1.672360   -0.940480
     66          6           0       -2.397110    2.592270    1.372840
     67          6           0       -3.754350    3.040920   -0.565990
     68          6           0       -4.295870    1.266180   -2.144970
     69          6           0       -3.110440    3.474890    0.612790
     70          6           0       -4.467120    3.937490   -1.390030
     71          6           0       -4.971750    2.163170   -2.924250
     72          1           0       -4.216330    0.233280   -2.448420
     73          1           0       -3.183370    4.516170    0.893080
     74          6           0       -5.066910    3.509260   -2.540460
     75          1           0       -4.524080    4.975500   -1.094070
     76          1           0       -5.435230    1.840360   -3.844970
     77          1           0       -5.609540    4.203460   -3.165500
     78         16           0       -0.210110   -0.235020   -0.539350
     79          8           0       -0.402780    1.016570   -1.233050
     80          8           0        0.921910   -1.020260   -1.017060
     81         16           0       -1.261980    0.165830    1.945710
     82          8           0       -1.920430   -1.106060    2.151220
     83          8           0       -0.851830    0.855210    3.141380
     84          7           0        0.019580   -0.035160    1.014940
     85          1           0        5.191600    1.080540   -0.694580
     86          1           0       -1.884630    2.883280    2.275780
     87          1           0       -0.550620   -2.953280   -1.247070
 ---------------------------------------------------------------------
 Rotational constants (GHZ):           0.0777856           0.0488199           0.0389868
 Leave Link  202 at Tue Feb  4 08:55:58 2025, MaxMem=  7247757312 cpu:               0.1 elap:               0.0
 (Enter /cm/shared/apps/spack/cpu/opt/spack/linux-centos8-zen/gcc-8.3.1/gaussian-16.C.01-po5bqktfeugvmjyga3v7eigbecnokxng/g16/l301.exe)
 General basis read from cards:  (5D, 7F)
 Centers:       1      2      3      4      5      8      9     10     11     12
 Centers:      16     17     18     19     20     22     24     29     33     34
 Centers:      35     38     48     49     50     51     52     53     56     57
 Centers:      60     61     63     64     65     66     67     68     69     70
 Centers:      71     74      7     13     14     15     21     23     25     26
 Centers:      27     30     31     32     36     37     39     40     41     42
 Centers:      43     44     47     54     55     58     59     62     72     73
 Centers:      75     76     77     85     86     87      6     45     84     28
 Centers:      46     79     80     82     83
 def2svp
 ****
 Centers:      78     81
 def2tzvp
 ****
 ======================================================================================================
                                       Pseudopotential Parameters
 ======================================================================================================
  Center     Atomic      Valence      Angular      Power
  Number     Number     Electrons     Momentum     of R      Exponent        Coefficient   SO-Coeffient
 ======================================================================================================
    1          6
                                   No pseudopotential on this center.
    2          6
                                   No pseudopotential on this center.
    3          6
                                   No pseudopotential on this center.
    4          6
                                   No pseudopotential on this center.
    5          6
                                   No pseudopotential on this center.
    6          7
                                   No pseudopotential on this center.
    7          1
                                   No pseudopotential on this center.
    8          6
                                   No pseudopotential on this center.
    9          6
                                   No pseudopotential on this center.
   10          6
                                   No pseudopotential on this center.
   11          6
                                   No pseudopotential on this center.
   12          6
                                   No pseudopotential on this center.
   13          1
                                   No pseudopotential on this center.
   14          1
                                   No pseudopotential on this center.
   15          1
                                   No pseudopotential on this center.
   16          6
                                   No pseudopotential on this center.
   17          6
                                   No pseudopotential on this center.
   18          6
                                   No pseudopotential on this center.
   19          6
                                   No pseudopotential on this center.
   20          6
                                   No pseudopotential on this center.
   21          1
                                   No pseudopotential on this center.
   22          6
                                   No pseudopotential on this center.
   23          1
                                   No pseudopotential on this center.
   24          6
                                   No pseudopotential on this center.
   25          1
                                   No pseudopotential on this center.
   26          1
                                   No pseudopotential on this center.
   27          1
                                   No pseudopotential on this center.
   28          9
                                   No pseudopotential on this center.
   29          6
                                   No pseudopotential on this center.
   30          1
                                   No pseudopotential on this center.
   31          1
                                   No pseudopotential on this center.
   32          1
                                   No pseudopotential on this center.
   33          6
                                   No pseudopotential on this center.
   34          6
                                   No pseudopotential on this center.
   35          6
                                   No pseudopotential on this center.
   36          1
                                   No pseudopotential on this center.
   37          1
                                   No pseudopotential on this center.
   38          6
                                   No pseudopotential on this center.
   39          1
                                   No pseudopotential on this center.
   40          1
                                   No pseudopotential on this center.
   41          1
                                   No pseudopotential on this center.
   42          1
                                   No pseudopotential on this center.
   43          1
                                   No pseudopotential on this center.
   44          1
                                   No pseudopotential on this center.
   45          7
                                   No pseudopotential on this center.
   46          8
                                   No pseudopotential on this center.
   47          1
                                   No pseudopotential on this center.
   48          6
                                   No pseudopotential on this center.
   49          6
                                   No pseudopotential on this center.
   50          6
                                   No pseudopotential on this center.
   51          6
                                   No pseudopotential on this center.
   52          6
                                   No pseudopotential on this center.
   53          6
                                   No pseudopotential on this center.
   54          1
                                   No pseudopotential on this center.
   55          1
                                   No pseudopotential on this center.
   56          6
                                   No pseudopotential on this center.
   57          6
                                   No pseudopotential on this center.
   58          1
                                   No pseudopotential on this center.
   59          1
                                   No pseudopotential on this center.
   60          6
                                   No pseudopotential on this center.
   61          6
                                   No pseudopotential on this center.
   62          1
                                   No pseudopotential on this center.
   63          6
                                   No pseudopotential on this center.
   64          6
                                   No pseudopotential on this center.
   65          6
                                   No pseudopotential on this center.
   66          6
                                   No pseudopotential on this center.
   67          6
                                   No pseudopotential on this center.
   68          6
                                   No pseudopotential on this center.
   69          6
                                   No pseudopotential on this center.
   70          6
                                   No pseudopotential on this center.
   71          6
                                   No pseudopotential on this center.
   72          1
                                   No pseudopotential on this center.
   73          1
                                   No pseudopotential on this center.
   74          6
                                   No pseudopotential on this center.
   75          1
                                   No pseudopotential on this center.
   76          1
                                   No pseudopotential on this center.
   77          1
                                   No pseudopotential on this center.
   78         16
                                   No pseudopotential on this center.
   79          8
                                   No pseudopotential on this center.
   80          8
                                   No pseudopotential on this center.
   81         16
                                   No pseudopotential on this center.
   82          8
                                   No pseudopotential on this center.
   83          8
                                   No pseudopotential on this center.
   84          7
                                   No pseudopotential on this center.
   85          1
                                   No pseudopotential on this center.
   86          1
                                   No pseudopotential on this center.
   87          1
                                   No pseudopotential on this center.
 ======================================================================================================
 Ernie: Thresh=  0.10000D-02 Tol=  0.10000D-05 Strict=F.
   958 basis functions,  1651 primitive gaussians,  1019 cartesian basis functions
   194 alpha electrons      194 beta electrons
       nuclear repulsion energy      8370.3082630993 Hartrees.
 IExCor= 4336 DFT=T Ex+Corr=M062X ExCW=0 ScaHFX=  0.540000
 ScaDFX=  1.000000  1.000000  1.000000  1.000000 ScalE2=  1.000000  1.000000
 IRadAn=      5 IRanWt=     -1 IRanGd=            0 ICorTp=0 IEmpDi=131
 NAtoms=   87 NActive=   87 NUniq=   87 SFac= 1.00D+00 NAtFMM=   60 NAOKFM=T Big=T
[...]
 81,0.00020153,0.00008621,-0.00002004,-0.00001516,0.00000376,0.00000206
 ,0.00000127,0.00000188,-0.00000026,0.00000003,-0.00000052,-0.00001045,
 0.00004217,0.00001306,0.00004757,-0.00006485,0.00000047,-0.00000315,-0
 .00000068,0.00000079,0.00316933,0.00166136,-0.00071429,0.00464123,-0.0
 0059097,0.00119063,-0.00075823,0.00058861,0.00007333,-0.13212404,-0.04
 120557,-0.13414587,0.00354073,0.00435506,-0.00460816,-0.00009059,-0.00
 025273,0.00056292,-0.00272078,-0.00624413,-0.01344566,0.00009587,-0.00
 065067,-0.00023359,-0.00005973,0.00042711,0.00000360,0.00001672,-0.000
 00067,-0.00001904,-0.00247449,-0.00152525,0.00301061,-0.00061064,-0.00
 014653,-0.00011765,0.00009743,0.00005959,-0.00005658,0.00002576,0.0000
 0784,-0.00002817,-0.00002908,-0.00003104,-0.00006396,0.00011188,0.0000
 2556,0.00016916,-0.00004803,-0.00004217,-0.00005152,0.00001731,-0.0000
 6056,-0.00005322,-0.00133539,0.00106170,0.00212332,0.00020419,-0.00085
 990,-0.00008918,-0.00154837,0.00132825,-0.00082063,-0.00032405,0.00024
 882,-0.00040515,-0.00000292,-0.00000017,0.00000218,0.13001864,0.000045
 39,0.00004404,-0.00001925,-0.00002191,0.00000227,0.00000281,0.00001370
 ,-0.00000229,-0.00000308,-0.00001790,0.00000104,0.00000280,0.00002305,
 -0.00002225,0.00000126,-0.00009251,0.00000653,0.00001639,-0.00000218,0
 .00000020,-0.00000022,0.00002851,-0.00003356,-0.00000402,0.00000139,-0
 .00002303,-0.00000414,0.00000246,0.00001850,0.00005226,0.00000308,-0.0
 0010882,0.00005709,-0.00004029,0.00005129,-0.00009182,-0.00000029,0.00
 000223,0.00000588,-0.00000246,-0.00003004,0.00003080,-0.00008566,0.000
 25233,0.00002353,0.00006459,0.00014634,-0.00017702,0.00000443,-0.00001
 021,-0.00000429,-0.00000212,0.00000768,0.00000591,-0.00000069,0.000003
 17,0.00000335,-0.00000009,-0.00000176,0.00000259,-0.00000069,-0.000000
 02,-0.00000105,-0.00000240,-0.00000413,-0.00000035,0.00000970,0.000001
 07,-0.00000704,-0.00000215,0.00000030,0.00000389,-0.00000143,-0.000000
 06,0.00000163,-0.00000037,0.00000086,0.00000004,-0.00000077,-0.0000000
 5,0.00000065,-0.00007074,-0.00009849,0.00010706,-0.00000324,-0.0000034
 7,0.00000260,-0.00000179,0.00000077,-0.00000005,-0.00000188,0.00000130
 ,0.00000034,-0.00000220,0.00000124,-0.00000037,0.00001221,0.00000233,0
 .00001709,-0.00000334,-0.00001652,0.00000668,0.00001886,-0.00005994,0.
 00002841,-0.00000899,0.00001225,0.00000061,0.00004003,-0.00004361,-0.0
 0004659,0.00003793,-0.00000089,-0.00000541,0.00000144,0.00000220,-0.00
 000097,-0.00000310,0.00000041,0.00000033,-0.00000209,-0.00002894,0.000
 00881,0.00002694,0.00001285,0.00000923,-0.00000462,0.00000335,-0.00000
 182,-0.00000210,-0.00000272,0.00000250,-0.00001867,0.00001460,0.000007
 73,-0.00004869,0.00005003,-0.00001500,0.00017752,-0.00005387,-0.000014
 06,-0.00002236,0.00001269,0.00000902,-0.00000301,0.00000626,-0.0000135
 0,0.00014462,-0.00024933,-0.00012999,-0.00004034,-0.00003705,0.0000619
 1,0.00001068,-0.00002037,-0.00000897,-0.00000020,0.00000711,-0.0000032
 8,-0.00000522,-0.00000358,0.00000161,0.00000122,-0.00000431,-0.0000010
 2,-0.00089480,0.00024357,-0.00090295,0.00002040,-0.00003873,-0.0000309
 6,-0.00000670,-0.00000804,0.00000291,-0.00000316,-0.00000167,0.0000004
 5,0.00004852,-0.00002663,0.00003590,0.00003984,-0.00008314,0.00015181,
 0.00000195,0.00000408,-0.00000782,0.00239338,-0.00474384,-0.00130931,-
 0.01429267,-0.00374689,-0.02122255,0.00037111,-0.00039529,0.00056052,-
 0.04158887,-0.07709127,-0.06911595,0.00419387,-0.00190010,0.00016238,-
 0.00028393,0.00009079,-0.00002598,0.01164166,0.01008325,0.01656641,0.0
 0010911,0.00063264,0.00053616,0.00008056,-0.00018213,-0.00001787,0.000
 03134,0.00000770,0.00002870,-0.00177749,0.00040714,0.00049843,0.000060
 83,-0.00012172,0.00034362,0.00003493,-0.00001591,-0.00004948,0.0000123
 6,0.00001443,-0.00000639,0.00005408,0.00002905,0.00007658,-0.00054735,
 -0.00009506,-0.00107047,0.00019276,-0.00006933,0.00022945,-0.00000970,
 0.00010566,0.00027566,-0.00276220,-0.00350483,-0.00521163,0.00059534,0
 .00054777,0.00058303,0.00089957,0.00197356,0.00235539,-0.00031277,0.00
 056714,0.00158380,-0.00000129,0.00000098,0.00000119,0.04154926,0.07753
 491,0.00004420,-0.00007068,0.00001422,-0.00003755,0.00004344,-0.000001
 81,0.00000602,-0.00003959,0.00001434,0.00002579,0.00002083,-0.00001226
 ,-0.00003577,-0.00001922,0.00001310,0.00001805,0.00001507,-0.00000834,
 0.00000128,0.00000076,0.00000007,-0.00001255,0.00004961,0.00003873,-0.
 00001703,0.00000504,0.00000617,-0.00001265,0.00002186,-0.00002381,-0.0
 0013316,0.00000416,-0.00018401,0.00001372,0.00004033,-0.00004131,-0.00
 000093,0.00000033,0.00000801,0.00003612,0.00003464,-0.00003059,0.00014
 041,0.00010052,0.00030383,0.00009557,-0.00019262,0.00015310,0.00001279
 ,-0.00000358,-0.00002708,-0.00000712,0.00001063,0.00001243,-0.00000875
 ,-0.00000352,0.00001661,0.00000219,0.00000036,0.00000154,0.00000231,0.
 00000200,-0.00000210,-0.00000323,0.00000267,-0.00000106,-0.00000482,-0
 .00000801,0.00000082,-0.00000432,0.00000267,0.00000730,-0.00000126,-0.
 00000057,0.00000254,-0.00000120,0.00000216,0.00000297,-0.00000037,0.00
 000040,0.00000148,-0.00002854,0.00008788,-0.00011185,-0.00000115,0.000
 00230,-0.00000143,-0.00000183,0.00000095,0.00000012,0.00000015,-0.0000
 0026,-0.00000052,-0.00000029,0.,0.00000069,-0.00000936,-0.00000186,-0.
 00000717,0.00000562,-0.00000635,-0.00000097,0.00000705,-0.00000003,-0.
 00000504,0.00000333,-0.00000085,0.00000124,-0.00000336,0.00001001,0.00
 000156,-0.00000735,0.00000363,0.00000229,-0.00000043,0.00000165,-0.000
 00085,0.00000082,-0.00000061,0.00000098,0.00000161,-0.00000596,0.00000
 543,-0.00000352,0.00000097,0.00000555,0.00000054,0.00000017,-0.0000010
 1,-0.00000019,-0.00000039,0.00000025,0.00001981,0.00002391,-0.00001005
 ,0.00000464,-0.00000055,-0.00000170,-0.00007512,-0.00000327,-0.0000057
 7,-0.00000563,-0.00000289,-0.00000167,0.00001932,-0.00000071,-0.000012
 99,0.00005906,-0.00011616,-0.00003687,-0.00003753,-0.00000128,0.000026
 97,0.00001027,-0.00000535,-0.00000783,-0.00000577,0.00000176,0.0000074
 9,-0.00000318,-0.00000051,-0.00000118,0.00000936,0.00000783,-0.0000027
 4,-0.00026887,0.00004589,-0.00007771,0.00004293,0.00000813,-0.00000919
 ,-0.00000363,-0.00000395,-0.00000151,-0.00000151,-0.00000083,0.0000008
 2,-0.00000596,-0.00007334,0.00000020,-0.00004481,0.00007819,-0.0000192
 7,-0.00000044,-0.00000152,-0.00000466,-0.00166241,-0.00165558,0.001728
 94,-0.00419778,-0.00154505,-0.00317736,0.00074122,-0.00003734,0.000299
 73,-0.13398993,-0.07108837,-0.23961334,-0.00437568,0.00025283,0.003805
 25,0.00023973,0.00006746,-0.00031743,-0.00574724,-0.00511277,-0.004290
 33,-0.00019236,-0.00023726,-0.00033285,0.00004164,-0.00008693,0.000109
 68,-0.00002089,-0.00000613,0.00001191,0.00291432,0.00083004,-0.0014460
 8,0.00022047,0.00036850,-0.00017860,-0.00008391,-0.00001436,0.00006196
 ,-0.00003202,-0.00001289,0.00001007,-0.00001177,-0.00001864,-0.0000249
 5,-0.00003325,-0.00017689,0.00024950,0.00004311,0.00013189,-0.00003410
 ,0.00006011,-0.00000594,-0.00010625,-0.00054548,0.00070506,-0.00192576
 ,0.00015546,0.00045174,0.00002642,-0.00138439,0.00244807,-0.00054920,0
 .00037029,-0.00038276,-0.00014917,0.00000409,-0.00000012,-0.00000168,0
 .14769225,0.07506583,0.24584453,-0.00003626,-0.00004156,0.00000870,0.0
 0001666,-0.00000542,-0.00000239,-0.00001495,0.00000296,0.00000358,0.00
 000913,0.00000316,0.00000228,-0.00002413,0.00003090,-0.00003186,0.0000
 4539,0.00000550,0.00002501,-0.00000018,-0.00000074,-0.00000322,0.00000
 458,0.00001753,0.00000172,0.00000097,-0.00000398,0.00001310,0.00000278
 ,-0.00000257,0.00000709,0.00000341,0.00000121,-0.00000155,0.00000326,-
 0.00000040,-0.00000319,-0.00000094,0.00000014,-0.00000087,-0.00000135,
 0.00000052,0.00000030,-0.00000127,-0.00000200,-0.00000102,0.00000168,-
 0.00000786,-0.00001584,0.00000741,0.00000267,-0.00000811,-0.00000082,0
 .00000298,-0.00000024,-0.00000579,-0.00002273,0.00001471,0.00000270,0.
 00000418,-0.00000262,0.00000164,0.00000227,-0.00000004,0.00000688,0.00
 001711,-0.00000620,-0.00004438,-0.00002079,0.00001541,-0.00000051,-0.0
 0000028,-0.00000422,0.00000163,0.00000119,-0.00000057,0.00000019,-0.00
 000359,0.00000628,0.00000315,0.00000097,-0.00000206,0.00000282,0.00000
 155,0.00000538,0.00000355,0.00000486,-0.00000147,0.00000137,-0.0000012
 3,-0.00000073,0.00000043,-0.00000221,0.00000002,0.00000240,-0.00000055
 ,0.00000036,-0.00004624,0.00004828,-0.00001197,-0.00000508,0.00002435,
 -0.00001260,0.00003596,-0.00000654,-0.00002919,0.00003501,0.00000463,0
 .00002131,0.00006405,-0.00000049,-0.00005000,-0.00000191,-0.00000256,-
 0.00000603,0.00000285,-0.00000245,-0.00000086,0.00000159,-0.00000203,0
 .00000067,-0.00000338,0.00000636,0.00000894,-0.00000756,-0.00000211,0.
 00000287,0.00000016,-0.00000116,0.00000408,0.00000034,0.00000078,0.000
 00071,-0.00003134,-0.00002192,0.00002695,-0.00000165,-0.00002068,0.000
 03312,-0.00004725,-0.00000646,-0.00005908,-0.00000061,-0.00029559,-0.0
 0007827,0.00024024,0.00015044,-0.00014159,-0.00004173,-0.00046021,-0.0
 0026987,-0.00119663,-0.00368090,0.00087529,-0.00025411,0.00071835,0.00
 032243,-0.00042619,-0.00009056,-0.00003823,-0.00000974,0.00000303,0.00
 001276,-0.00000740,0.00000585,0.00000740,0.00136766,-0.00070852,0.0003
 1549,-0.01329142,0.00961760,0.00758071,0.00001386,-0.00004060,0.000015
 73,-0.00006858,0.00004233,0.00003615,-0.29067733,0.08939704,0.08399233
 ,0.00187739,0.00099363,0.00095240,0.00087925,0.00067572,-0.00117878,0.
 00016068,-0.00017449,0.00002201,-0.00000964,-0.00000678,0.00001758,0.0
 0001693,-0.00003722,0.00001993,-0.00000568,0.00001256,-0.00001311,-0.0
 0000860,-0.00001183,0.00000911,0.00000459,0.00000597,-0.00000930,0.000
 00648,0.00000385,0.00000680,0.00000013,-0.00000538,-0.00000566,0.00000
 017,-0.00000793,0.00000064,0.00000211,-0.00000350,0.00000540,-0.000003
 24,0.00000191,-0.00000042,-0.00000335,0.00000568,-0.00000105,0.0000000
 5,0.00000101,-0.00000039,-0.00000267,0.00000192,-0.00000193,-0.0000007
 2,0.00000055,-0.00000060,-0.00057287,-0.00133451,-0.00131973,0.0001463
 1,0.00039635,0.00018949,-0.00290276,-0.00220468,-0.00048471,0.00029532
 ,0.00006233,-0.00020318,-0.00006579,-0.00005230,0.00004817,-0.00003922
 ,0.00005348,0.00012002,-0.00029668,0.00007784,0.00036361,0.00000039,-0
 .00000078,-0.00000082,0.00000043,-0.00000121,0.00000061,0.30488600,-0.
 00012756,-0.00008950,0.00001459,0.00006704,-0.00003420,-0.00000366,-0.
 00002045,0.00005511,-0.00000989,-0.00002273,-0.00002683,0.00000224,0.0
 0000079,0.00016408,-0.00007093,0.00013838,0.00000141,0.00005591,0.0000
 0624,-0.00000004,0.00000112,-0.00000055,0.00002902,0.00001048,0.000004
 69,-0.00001012,0.00002011,0.00000213,-0.00000446,0.00000589,0.00000103
 ,0.00000839,-0.00001082,0.00000657,-0.00000140,0.00000571,-0.00000227,
 -0.00000251,-0.00000216,-0.00000130,0.00000257,-0.00000123,-0.00000111
 ,-0.00000414,-0.00000049,-0.00001284,-0.00004288,-0.00004304,0.0000109
 4,0.00000177,-0.00001769,-0.00000160,0.00000394,0.00000171,0.00000463,
 -0.00005135,0.00001538,0.00000677,0.00000622,-0.00000387,0.00000206,0.
 00000530,-0.00000126,0.00002301,0.00004193,-0.00000034,-0.00012051,-0.
 00002476,0.00006880,0.00000344,-0.00000502,-0.00000931,0.00000178,0.00
 000201,-0.00000194,-0.00000524,-0.00000038,0.00000074,0.00000380,0.000
 00382,-0.00000565,0.00001115,0.00000875,0.00001775,0.00000551,0.000004
 75,-0.00000280,0.00000383,-0.00000181,0.00000081,0.00000230,-0.0000007
 6,0.00000047,0.00000333,-0.00000224,-0.00000080,-0.00000639,0.00015133
 ,0.00003936,0.00000367,0.00006325,-0.00000507,0.00001901,-0.00003739,-
 0.00004547,-0.00000197,-0.00004352,0.00001008,-0.00003906,0.00006735,-
 0.00017589,-0.00001169,-0.00001004,0.00000014,0.00000031,-0.00001381,0
 .00000518,0.00000481,-0.00000549,0.00000410,-0.00000138,0.00000940,0.0
 0000625,-0.00000422,-0.00000348,-0.00001279,0.00000118,-0.00000114,0.0
 0000708,0.00000215,-0.00000164,-0.00000459,-0.00003857,-0.00012519,0.0
 0003178,0.00001289,-0.00003642,0.00004882,-0.00015493,0.00001076,-0.00
 012757,-0.00006715,-0.00015919,-0.00006424,0.00024048,0.00005991,0.000
 17494,-0.00066661,-0.00033688,0.00023087,-0.00347303,-0.00130930,-0.00
 265791,-0.00034844,0.00060261,0.00033965,-0.00023529,-0.00010116,0.000
 24719,-0.00000431,0.00001547,-0.00001457,-0.00004151,0.00001029,0.0000
 0239,-0.00151748,-0.00451525,-0.00263854,-0.01767992,0.01067598,0.0055
 1588,0.00000196,-0.00000901,-0.00006413,-0.00008202,0.00003172,0.00002
 576,0.08869416,-0.08782585,-0.03500028,0.02375065,-0.00528230,-0.00823
 793,0.00108503,0.00022970,0.00164379,0.00126732,0.00018792,-0.00018362
 ,-0.00012886,-0.00008249,0.00008900,-0.00005890,-0.00023990,-0.0001985
 6,-0.00006457,-0.00002255,0.00000368,-0.00000639,-0.00003847,0.0000714
 4,0.00000982,0.00000593,-0.00000839,-0.00000294,-0.00003969,-0.0000390
 7,-0.00000484,-0.00001834,-0.00001367,0.00001387,0.00001062,0.00002144
 ,-0.00000186,-0.00000383,-0.00000299,0.00000431,0.00000340,-0.00000716
 ,0.00000367,0.00000668,-0.00000100,0.00000302,-0.00000890,0.00000609,0
 .00000329,-0.00000411,0.00000474,0.00000230,-0.00000210,0.00000238,0.0
 0498906,-0.00348889,-0.00203346,-0.00075491,0.00045927,0.00005387,-0.0
 0156471,0.00209876,0.00130471,0.00103812,-0.00017957,-0.00049219,-0.00
 028658,-0.00005780,0.00005247,-0.00016184,0.00009661,0.00018916,-0.000
 62808,0.00055126,0.00137186,0.00000189,-0.00000183,-0.00000139,0.00000
 453,-0.00002403,-0.00000669,-0.09311225,0.08864466,-0.00000357,-0.0000
 5308,0.00000670,-0.00001039,0.00003577,-0.00000933,-0.00001799,-0.0000
 5925,0.00002482,0.00008710,0.00005141,-0.00003109,-0.00013715,-0.00017
 105,0.00008436,-0.00001986,0.00008645,-0.00001508,-0.00000216,-0.00000
 099,0.00000050,0.00000576,0.00000709,-0.00000556,-0.00001473,-0.000004
 01,0.00002127,0.00000231,-0.00000338,0.00000661,-0.00000234,0.00000623
 ,-0.00000324,0.00000237,0.00000150,-0.00000372,-0.00000075,0.00000213,
 -0.00000058,-0.00000014,0.00000123,0.00000065,0.00000091,0.00000079,0.
 00000100,0.00001003,-0.00000959,-0.00001575,-0.00000081,0.00000668,0.0
 0000162,-0.00000390,-0.00000374,-0.00000064,0.00000967,-0.00002608,-0.
 00000511,0.00000067,-0.00000155,-0.00000519,0.00000110,-0.00000023,0.0
 0000064,-0.00000209,0.00002418,0.00000413,-0.00003935,0.00000244,0.000
 03053,0.00000359,-0.00000158,-0.00001246,0.00000130,-0.00000073,-0.000
 00029,0.00000906,-0.00000518,-0.00000243,0.00000381,0.00000165,-0.0000
 0081,-0.00000325,0.00000173,0.00000328,0.00000363,0.00000732,-0.000005
 00,0.00000193,-0.00000128,0.00000059,0.00000435,-0.00000065,-0.0000010
 2,0.00000380,-0.00000123,0.00000015,-0.00017755,0.00006982,0.00001896,
 0.00002725,0.00002601,-0.00005379,0.00005235,-0.00000455,-0.00010709,-
 0.00003729,0.00012411,-0.00006016,-0.00006827,-0.00020457,-0.00022623,
 -0.00008171,-0.00000533,-0.00001568,-0.00000870,0.00000716,0.00000388,
 0.00001194,-0.00000467,0.00000890,0.00000898,-0.00001431,-0.00002853,0
 .00001074,0.00001281,0.00003762,0.00000708,-0.00000574,0.00000324,0.00
 000959,0.00001059,0.00000246,0.00014013,0.00009284,0.00004476,0.000071
 64,-0.00003138,0.00010899,0.00000041,-0.00008280,-0.00005402,-0.000118
 29,-0.00031222,0.00001806,0.00016384,0.00021147,-0.00061849,-0.0009357
 5,-0.00029144,-0.00049469,0.00067042,-0.00268717,0.00798582,0.00024549
 ,0.00019162,0.00005081,-0.00036136,0.00040134,-0.00038495,0.00001570,-
 0.00001724,0.00004628,0.00000763,-0.00000589,0.00003322,0.00124227,-0.
 00255924,0.00337319,-0.00095951,-0.00000667,0.00567021,0.00004535,-0.0
 0005434,0.00014184,-0.00001914,0.00000602,0.00000926,0.08373164,-0.036
 77003,-0.07063806,0.00722766,-0.00158347,0.00105764,-0.00105649,0.0017
 6590,-0.00467247,0.00041534,-0.00011952,0.00016865,0.00006090,0.000096
 17,0.00002873,-0.00001995,-0.00016271,-0.00006405,-0.00000606,-0.00008
 347,-0.00000781,0.00000861,-0.00001275,0.00006108,-0.00000927,0.000005
 57,-0.00003379,-0.00002770,0.00001871,-0.00003595,-0.00000464,-0.00000
 964,-0.00002018,0.00000628,-0.00001071,0.00000212,-0.00000375,0.000008
 09,-0.00000512,0.00000123,-0.00000027,-0.00000456,-0.00000280,0.000006
 33,0.00001109,0.00000444,-0.00000399,0.00000054,0.00000182,0.00000061,
 -0.00000060,0.00000016,-0.00000061,0.00000134,0.00149947,-0.00014051,-
 0.00247280,-0.00000229,0.00087004,0.00007774,-0.00005429,0.00125373,0.
 00001196,0.00001490,-0.00019064,0.00008897,-0.00004320,0.00014265,-0.0
 0000497,0.00001207,0.00004118,-0.00004347,-0.00049580,-0.00036890,-0.0
 0018065,0.00000140,0.00000014,0.00000051,-0.00000275,-0.00000838,0.000
 00258,-0.09111307,0.04049724,0.06108815\\-0.00002066,-0.00001907,0.000
 00800,0.00001616,0.00000399,-0.00000924,-0.00000592,0.00001059,-0.0000
 0500,-0.00001136,-0.00000173,0.00000346,0.00001616,-0.00002763,0.00001
 538,0.00000145,0.00003874,-0.00001239,0.00000228,0.00000322,0.00000009
 ,0.00000195,-0.00000113,-0.00001051,0.00000512,0.00000205,0.00000915,-
 0.00000248,0.00000176,0.00000284,-0.00000167,-0.00000467,0.00000044,0.
 00000005,0.00000249,-0.00000009,0.00000097,-0.00000107,0.00000321,0.00
 000183,-0.00000234,0.00000312,0.00000168,-0.00000146,-0.00000055,0.000
 00088,-0.00000622,0.00001195,-0.00000189,-0.00000055,-0.00000265,-0.00
 000215,-0.00000119,0.00000179,0.00000087,-0.00000111,-0.00000239,-0.00
 000206,-0.00000062,-0.00000086,0.,-0.00000075,-0.00000022,-0.00000232,
 0.00000194,0.00000432,-0.00000005,0.00000667,0.00000184,-0.00000145,0.
 00000617,0.00000141,-0.00000226,0.00000063,0.00000221,-0.00000087,0.00
 000517,-0.00000082,-0.00000223,0.00000321,0.00000165,-0.00000568,0.000
 00513,-0.00000629,0.00000152,-0.00000132,0.00000026,-0.00000042,0.0000
 0232,-0.00000272,-0.00000105,0.00000025,0.00000019,-0.00000094,-0.0000
 0141,-0.00000294,-0.00000612,-0.00000195,0.00000457,0.00000412,-0.0000
 0293,0.00001041,-0.00000141,0.00000292,0.00000382,0.00000250,0.0000017
 6,-0.00000271,-0.00000233,0.00000281,-0.00000723,-0.00000783,-0.000002
 41,-0.00000718,0.00000055,0.00000099,-0.00000346,-0.00000166,-0.000001
 63,-0.00000732,0.00000428,-0.00000356,-0.00000167,0.00000233,-0.000004
 31,-0.00000291,0.00000244,-0.00000041,-0.00000276,0.00000156,-0.000002
 67,0.00000028,0.00000160,0.00000732,-0.00002705,0.00000718,-0.00000034
 ,-0.00000281,0.00000423,-0.00002451,0.00000019,0.00000263,0.00000076,0
 .00000029,-0.00000250,-0.00000407,-0.00000136,0.00000254,-0.00000056,0
 .00000017,-0.00000115,0.00000243,0.00000095,-0.00000236,0.00000162,0.0
 0000070,0.00000120,-0.00000115,-0.00000074,0.00000267,-0.00000040,-0.0
 0000024,-0.00000117,-0.00000301,0.00000048,0.00001354,-0.00000806,-0.0
 0000729,-0.00000189,0.00000100,-0.00000066,-0.00000014,0.00000281,-0.0
 0000060,0.00000247,0.00000081,-0.00000050,0.00000132,0.00000036,0.0000
 0119,-0.00001509,0.00000784,0.00000551,0.00000003,0.00000215,0.0000002
 9,0.00000046,0.00000546,0.00000684,-0.00000445,-0.00001004,-0.00000640
 ,0.00000352,0.00000292,0.00000624,0.00000261,-0.00000194,0.00000109,-0
 .00000071,-0.00000214,0.00000061,-0.00000388,0.00000387,0.00000033,-0.
 00000088,-0.00000101,0.00000129,-0.00000108,-0.00000127,0.00000137,0.0
 0000158,-0.00000150,0.00000365,-0.00000120,0.00000301,0.00000181,0.000
 00150,-0.00000271,0.00000176,0.00000009,0.00000084,0.00000398,-0.00000
 064,-0.00000247,0.00000234,0.00000034,0.00000146,0.00000455,0.00000136
 ,0.00000023,0.00000492,-0.00000361,-0.00000219,0.00000024,0.00000096,-
 0.00000466,0.00000581,0.00000458,0.00000176,0.00000644,-0.00001821,-0.
 00000727,0.00002619,0.00000389,0.00000794,-0.00000458,0.00000093,-0.00
 000811,-0.00001289,0.00002465,0.00002355,-0.00001985,-0.00000347,-0.00
 000212,-0.00000041,-0.00000231,-0.00000107,-0.00000096,-0.00000500,0.0
 0000180,-0.00000137\\\@
 The archive entry for this job was punched.


 POCKETA-POCKETA
 BARON VON RICHTOFEN
 SLAUGHTERED THE ALLIES WITH
 HARDLY A CARE.
 KILLED EIGHTY-ONE WITH HIS
 BLOOD-COLORED TRIPLANE, THEN
 UN-AEROBATICALLY
 PLUNGED FROM THE AIR.
   -- TONY HOFFMAN
 Job cpu time:       1 days 21 hours 21 minutes 54.9 seconds.
 Elapsed time:       0 days  1 hours 26 minutes 37.2 seconds.
 File lengths (MBytes):  RWF=   8695 Int=      0 D2E=      0 Chk=    102 Scr=      1
 Normal termination of Gaussian 16 at Tue Feb  4 12:10:03 2025.
