 Entering Gaussian System, Link 0=g16
 Initial command:
 /ihome/crc/install/gaussian/c01/avx2/tar/g16/l1.exe "/scratch/slurm-18112905/Gau-23820.inp" -scrdir="/scratch/slurm-18112905/"
 Entering Link 1 = /ihome/crc/install/gaussian/c01/avx2/tar/g16/l1.exe PID=     23821.
  
 Copyright (c) 1988-2019, Gaussian, Inc.  All Rights Reserved.
  
 This is part of the Gaussian(R) 16 program.  It is based on
 the Gaussian(R) 09 system (copyright 2009, Gaussian, Inc.),
 the Gaussian(R) 03 system (copyright 2003, Gaussian, Inc.),
 the Gaussian(R) 98 system (copyright 1998, Gaussian, Inc.),
 the Gaussian(R) 94 system (copyright 1995, Gaussian, Inc.),
 the Gaussian 92(TM) system (copyright 1992, Gaussian, Inc.),
 the Gaussian 90(TM) system (copyright 1990, Gaussian, Inc.),
 the Gaussian 88(TM) system (copyright 1988, Gaussian, Inc.),
 the Gaussian 86(TM) system (copyright 1986, Carnegie Mellon
 University), and the Gaussian 82(TM) system (copyright 1983,
 Carnegie Mellon University). Gaussian is a federally registered
 trademark of Gaussian, Inc.
  
 This software contains proprietary and confidential information,
 including trade secrets, belonging to Gaussian, Inc.
  
 This software is provided under written license and may be
 used, copied, transmitted, or stored only in accord with that
 written license.
  
 The following legend is applicable only to US Government
 contracts under FAR:
  
                    RESTRICTED RIGHTS LEGEND
  
 Use, reproduction and disclosure by the US Government is
 subject to restrictions as set forth in subparagraphs (a)
 and (c) of the Commercial Computer Software - Restricted
 Rights clause in FAR 52.227-19.
  
 Gaussian, Inc.
 340 Quinnipiac St., Bldg. 40, Wallingford CT 06492
  
  
 ---------------------------------------------------------------
 Warning -- This program may not be used in any manner that
 competes with the business of Gaussian, Inc. or will provide
 assistance to any competitor of Gaussian, Inc.  The licensee
 of this program is prohibited from giving any competitor of
 Gaussian, Inc. access to this program.  By using this program,
 the user acknowledges that Gaussian, Inc. is engaged in the
 business of creating and licensing software in the field of
 computational chemistry and represents and warrants to the
 licensee that it is not a competitor of Gaussian, Inc. and that
 it will not use this program in any manner prohibited above.
 ---------------------------------------------------------------
  

 Cite this work as:
 Gaussian 16, Revision C.01,
 M. J. Frisch, G. W. Trucks, H. B. Schlegel, G. E. Scuseria, 
 M. A. Robb, J. R. Cheeseman, G. Scalmani, V. Barone, 
 G. A. Petersson, H. Nakatsuji, X. Li, M. Caricato, A. V. Marenich, 
 J. Bloino, B. G. Janesko, R. Gomperts, B. Mennucci, H. P. Hratchian, 
 J. V. Ortiz, A. F. Izmaylov, J. L. Sonnenberg, D. Williams-Young, 
 F. Ding, F. Lipparini, F. Egidi, J. Goings, B. Peng, A. Petrone, 
 T. Henderson, D. Ranasinghe, V. G. Zakrzewski, J. Gao, N. Rega, 
 G. Zheng, W. Liang, M. Hada, M. Ehara, K. Toyota, R. Fukuda, 
 J. Hasegawa, M. Ishida, T. Nakajima, Y. Honda, O. Kitao, H. Nakai, 
 T. Vreven, K. Throssell, J. A. Montgomery, Jr., J. E. Peralta, 
 F. Ogliaro, M. J. Bearpark, J. J. Heyd, E. N. Brothers, K. N. Kudin, 
 V. N. Staroverov, T. A. Keith, R. Kobayashi, J. Normand, 
 K. Raghavachari, A. P. Rendell, J. C. Burant, S. S. Iyengar, 
 J. Tomasi, M. Cossi, J. M. Millam, M. Klene, C. Adamo, R. Cammi, 
 J. W. Ochterski, R. L. Martin, K. Morokuma, O. Farkas, 
 J. B. Foresman, and D. J. Fox, Gaussian, Inc., Wallingford CT, 2019.
 
 ******************************************
 Gaussian 16:  ES64L-G16RevC.01  3-Jul-2019
                27-Feb-2025 
 ******************************************
 %nprocshared=32
 Will use up to   32 processors via shared memory.
 %mem=32GB
 ----------------------------------------------------------------------
 #p m062x genecp opt freq nosymm scrf=(smd,solvent=propylethanoate) emp
 iricaldispersion=gd3 scf=(xqc,maxcycles=128)
 ----------------------------------------------------------------------
 1/18=20,19=15,26=3,38=1/1,3;
 2/9=110,12=2,15=1,17=6,18=5,40=1/2;
 3/5=7,11=2,16=1,17=8,25=1,30=1,70=32201,71=1,72=169,74=-55,124=31/1,2,3;
 4//1;
 5/5=2,7=128,8=3,13=1,38=5,53=169/2,8;
 6/7=2,8=2,9=2,10=2,28=1/1;
 7/30=1/1,2,3,16;
 1/18=20,19=15,26=3/3(2);
 2/9=110,15=1/2;
 99//99;
 2/9=110,15=1/2;
 3/5=7,6=1,11=2,16=1,17=8,25=1,30=1,70=32205,71=1,72=169,74=-55,82=7,124=31/1,2,3;
 4/5=5,16=3,69=1/1;
 5/5=2,7=128,8=3,13=1,38=5,53=169/2,8;
 7/30=1/1,2,3,16;
 1/18=20,19=15,26=3/3(-5);
 2/9=110,15=1/2;
 6/7=2,8=2,9=2,10=2,19=2,28=1/1;
 99/9=1/99;
 Leave Link    1 at Thu Feb 27 17:08:12 2025, MaxMem=  4294967296 cpu:               1.2 elap:               0.0
 (Enter /ihome/crc/install/gaussian/c01/avx2/tar/g16/l101.exe)
 -------------------
 Title Card Required
 -------------------
 Symbolic Z-matrix:
 Charge =  0 Multiplicity = 1
 N                    -1.23012  -7.02726  -5.05589 
 C                    -0.21063  -7.41624  -4.32136 
 C                    -0.58148  -8.22105  -3.09016 
 C                    -2.10219  -8.20906  -3.14909 
 C                    -2.40394  -7.46187  -4.4576 
 O                    -3.51483  -7.27172  -4.89536 
 O                     1.00174  -7.1479   -4.58546 
 H                    -0.13304  -9.22236  -3.16431 
 H                    -0.15246  -7.73227  -2.20333 
 H                    -2.56654  -7.65555  -2.3203 
 H                    -2.56564  -9.20426  -3.18283 
 C                     0.86334  -4.02538  -5.11691 
 C                     0.8454   -2.72307  -5.56028 
 C                     0.98507  -2.47399  -6.94042 
 C                     1.14477  -3.5469   -7.79474 
 C                     1.18191  -4.87752  -7.29468 
 N                     1.04754  -5.06955  -5.96258 
 H                     1.20728  -3.36009  -8.86321 
 C                     0.66561  -4.33751  -3.67152 
 C                    -0.51787  -4.01184  -2.97849 
 C                    -0.59853  -4.29822  -1.60656 
 C                     1.63843  -5.21496  -1.60669 
 C                     0.46319  -4.89292  -0.92991 
 H                    -1.52068  -4.06235  -1.07325 
 H                     0.3753   -5.11218   0.13528 
 H                     2.49234  -5.67887  -1.11252 
 C                     1.71046  -4.93041  -2.96031 
 C                    -1.6773   -3.36268  -3.65446 
 C                    -2.2731   -2.23404  -3.07464 
 C                    -2.19961  -3.86635  -4.85507 
 C                    -3.36067  -1.61224  -3.68744 
 H                    -1.86881  -1.83063  -2.14358 
 C                    -3.2921   -3.24786  -5.45967 
 H                    -1.76815  -4.76869  -5.29586 
 C                    -3.87269  -2.1174   -4.88239 
 H                    -3.8082   -0.72882  -3.22849 
 H                    -3.69819  -3.66258  -6.38399 
 H                    -4.72699  -1.63454  -5.36024 
 F                     2.83547  -5.21426  -3.62057 
 C                     0.92098  -1.0672   -7.4548 
 H                    -0.0623   -0.62953  -7.22567 
 H                     1.6777   -0.44461  -6.95558 
 H                     1.08389  -1.02333  -8.5386 
 C                     0.87876  -7.29465  -7.77819 
 C                     1.4724   -5.81312  -9.55892 
 C                    -0.45989  -7.52981  -8.46816 
 H                     0.78276  -7.43714  -6.70169 
 H                     1.62144  -8.01559  -8.15312 
 C                     0.11739  -6.07401  -10.20666 
 H                     1.88475  -4.84124  -9.84381 
 H                     2.18222  -6.58239  -9.90014 
 H                    -1.21199  -6.83838  -8.04285 
 H                    -0.80182  -8.55875  -8.29143 
 H                    -0.60198  -5.29648  -9.88179 
 H                     0.19969  -6.03595  -11.30159 
 N                     1.35446  -5.95045  -8.11014 
 O                    -0.35402  -7.35459  -9.86387 
 H                     0.69403  -1.90956  -4.85068 
 H                     1.04309  -6.36743  -5.20929 
 
 Add virtual bond connecting atoms H59        and N17        Dist= 2.84D+00.
 ITRead=  0  0  0  0  0  0  0  0  0  0  0  0  0  0  0  0  0  0  0  0
 ITRead=  0  0  0  0  0  0  0  0  0  0  0  0  0  0  0  0  0  0  0  0
 ITRead=  0  0  0  0  0  0  0  0  0  0  0  0  0  0  0  0  0  0  0
 MicOpt= -1 -1 -1 -1 -1 -1 -1 -1 -1 -1 -1 -1 -1 -1 -1 -1 -1 -1 -1 -1
 MicOpt= -1 -1 -1 -1 -1 -1 -1 -1 -1 -1 -1 -1 -1 -1 -1 -1 -1 -1 -1 -1
 MicOpt= -1 -1 -1 -1 -1 -1 -1 -1 -1 -1 -1 -1 -1 -1 -1 -1 -1 -1 -1
 NAtoms=     59 NQM=       59 NQMF=       0 NMMI=      0 NMMIF=      0
                NMic=       0 NMicF=      0.
                    Isotopes and Nuclear Properties:
 (Nuclear quadrupole moments (NQMom) in fm**2, nuclear magnetic moments (NMagM)
  in nuclear magnetons)

  Atom         1           2           3           4           5           6           7           8           9          10
 IAtWgt=          14          12          12          12          12          16          16           1           1           1
 AtmWgt=  14.0030740  12.0000000  12.0000000  12.0000000  12.0000000  15.9949146  15.9949146   1.0078250   1.0078250   1.0078250
 NucSpn=           2           0           0           0           0           0           0           1           1           1
 AtZEff=  -0.0000000  -0.0000000  -0.0000000  -0.0000000  -0.0000000  -0.0000000  -0.0000000  -0.0000000  -0.0000000  -0.0000000
 NQMom=    2.0440000   0.0000000   0.0000000   0.0000000   0.0000000   0.0000000   0.0000000   0.0000000   0.0000000   0.0000000
 NMagM=    0.4037610   0.0000000   0.0000000   0.0000000   0.0000000   0.0000000   0.0000000   2.7928460   2.7928460   2.7928460
 AtZNuc=   7.0000000   6.0000000   6.0000000   6.0000000   6.0000000   8.0000000   8.0000000   1.0000000   1.0000000   1.0000000

  Atom        11          12          13          14          15          16          17          18          19          20
 IAtWgt=           1          12          12          12          12          12          14           1          12          12
 AtmWgt=   1.0078250  12.0000000  12.0000000  12.0000000  12.0000000  12.0000000  14.0030740   1.0078250  12.0000000  12.0000000
 NucSpn=           1           0           0           0           0           0           2           1           0           0
 AtZEff=  -0.0000000  -0.0000000  -0.0000000  -0.0000000  -0.0000000  -0.0000000  -0.0000000  -0.0000000  -0.0000000  -0.0000000
 NQMom=    0.0000000   0.0000000   0.0000000   0.0000000   0.0000000   0.0000000   2.0440000   0.0000000   0.0000000   0.0000000
 NMagM=    2.7928460   0.0000000   0.0000000   0.0000000   0.0000000   0.0000000   0.4037610   2.7928460   0.0000000   0.0000000
 AtZNuc=   1.0000000   6.0000000   6.0000000   6.0000000   6.0000000   6.0000000   7.0000000   1.0000000   6.0000000   6.0000000

  Atom        21          22          23          24          25          26          27          28          29          30
 IAtWgt=          12          12          12           1           1           1          12          12          12          12
 AtmWgt=  12.0000000  12.0000000  12.0000000   1.0078250   1.0078250   1.0078250  12.0000000  12.0000000  12.0000000  12.0000000
 NucSpn=           0           0           0           1           1           1           0           0           0           0
 AtZEff=  -0.0000000  -0.0000000  -0.0000000  -0.0000000  -0.0000000  -0.0000000  -0.0000000  -0.0000000  -0.0000000  -0.0000000
 NQMom=    0.0000000   0.0000000   0.0000000   0.0000000   0.0000000   0.0000000   0.0000000   0.0000000   0.0000000   0.0000000
 NMagM=    0.0000000   0.0000000   0.0000000   2.7928460   2.7928460   2.7928460   0.0000000   0.0000000   0.0000000   0.0000000
 AtZNuc=   6.0000000   6.0000000   6.0000000   1.0000000   1.0000000   1.0000000   6.0000000   6.0000000   6.0000000   6.0000000

  Atom        31          32          33          34          35          36          37          38          39          40
 IAtWgt=          12           1          12           1          12           1           1           1          19          12
 AtmWgt=  12.0000000   1.0078250  12.0000000   1.0078250  12.0000000   1.0078250   1.0078250   1.0078250  18.9984032  12.0000000
 NucSpn=           0           1           0           1           0           1           1           1           1           0
 AtZEff=  -0.0000000  -0.0000000  -0.0000000  -0.0000000  -0.0000000  -0.0000000  -0.0000000  -0.0000000  -0.0000000  -0.0000000
 NQMom=    0.0000000   0.0000000   0.0000000   0.0000000   0.0000000   0.0000000   0.0000000   0.0000000   0.0000000   0.0000000
 NMagM=    0.0000000   2.7928460   0.0000000   2.7928460   0.0000000   2.7928460   2.7928460   2.7928460   2.6288670   0.0000000
 AtZNuc=   6.0000000   1.0000000   6.0000000   1.0000000   6.0000000   1.0000000   1.0000000   1.0000000   9.0000000   6.0000000

  Atom        41          42          43          44          45          46          47          48          49          50
 IAtWgt=           1           1           1          12          12          12           1           1          12           1
 AtmWgt=   1.0078250   1.0078250   1.0078250  12.0000000  12.0000000  12.0000000   1.0078250   1.0078250  12.0000000   1.0078250
 NucSpn=           1           1           1           0           0           0           1           1           0           1
 AtZEff=  -0.0000000  -0.0000000  -0.0000000  -0.0000000  -0.0000000  -0.0000000  -0.0000000  -0.0000000  -0.0000000  -0.0000000
 NQMom=    0.0000000   0.0000000   0.0000000   0.0000000   0.0000000   0.0000000   0.0000000   0.0000000   0.0000000   0.0000000
 NMagM=    2.7928460   2.7928460   2.7928460   0.0000000   0.0000000   0.0000000   2.7928460   2.7928460   0.0000000   2.7928460
 AtZNuc=   1.0000000   1.0000000   1.0000000   6.0000000   6.0000000   6.0000000   1.0000000   1.0000000   6.0000000   1.0000000

  Atom        51          52          53          54          55          56          57          58          59
 IAtWgt=           1           1           1           1           1          14          16           1           1
 AtmWgt=   1.0078250   1.0078250   1.0078250   1.0078250   1.0078250  14.0030740  15.9949146   1.0078250   1.0078250
 NucSpn=           1           1           1           1           1           2           0           1           1
 AtZEff=  -0.0000000  -0.0000000  -0.0000000  -0.0000000  -0.0000000  -0.0000000  -0.0000000  -0.0000000  -0.0000000
 NQMom=    0.0000000   0.0000000   0.0000000   0.0000000   0.0000000   2.0440000   0.0000000   0.0000000   0.0000000
 NMagM=    2.7928460   2.7928460   2.7928460   2.7928460   2.7928460   0.4037610   0.0000000   2.7928460   2.7928460
 AtZNuc=   1.0000000   1.0000000   1.0000000   1.0000000   1.0000000   7.0000000   8.0000000   1.0000000   1.0000000
 Leave Link  101 at Thu Feb 27 17:08:12 2025, MaxMem=  4294967296 cpu:               3.9 elap:               0.2
 (Enter /ihome/crc/install/gaussian/c01/avx2/tar/g16/l103.exe)

 GradGradGradGradGradGradGradGradGradGradGradGradGradGradGradGradGradGrad
 Berny optimization.
 Initialization pass.
                           ----------------------------
                           !    Initial Parameters    !
                           ! (Angstroms and Degrees)  !
 --------------------------                            --------------------------
 ! Name  Definition              Value          Derivative Info.                !
 --------------------------------------------------------------------------------
 ! R1    R(1,2)                  1.3154         estimate D2E/DX2                !
 ! R2    R(1,5)                  1.3873         estimate D2E/DX2                !
 ! R3    R(2,3)                  1.5169         estimate D2E/DX2                !
 ! R4    R(2,7)                  1.2695         estimate D2E/DX2                !
 ! R5    R(3,4)                  1.5219         estimate D2E/DX2                !
 ! R6    R(3,8)                  1.0996         estimate D2E/DX2                !
 ! R7    R(3,9)                  1.0997         estimate D2E/DX2                !
 ! R8    R(4,5)                  1.5367         estimate D2E/DX2                !
 ! R9    R(4,10)                 1.0995         estimate D2E/DX2                !
 ! R10   R(4,11)                 1.0983         estimate D2E/DX2                !
 ! R11   R(5,6)                  1.2091         estimate D2E/DX2                !
 ! R12   R(7,59)                 1.0            estimate D2E/DX2                !
 ! R13   R(12,13)                1.3758         estimate D2E/DX2                !
 ! R14   R(12,17)                1.3562         estimate D2E/DX2                !
 ! R15   R(12,19)                1.4919         estimate D2E/DX2                !
 ! R16   R(13,14)                1.4094         estimate D2E/DX2                !
 ! R17   R(13,58)                1.0901         estimate D2E/DX2                !
 ! R18   R(14,15)                1.3808         estimate D2E/DX2                !
 ! R19   R(14,40)                1.4992         estimate D2E/DX2                !
 ! R20   R(15,16)                1.422          estimate D2E/DX2                !
 ! R21   R(15,18)                1.0865         estimate D2E/DX2                !
 ! R22   R(16,17)                1.3526         estimate D2E/DX2                !
 ! R23   R(16,56)                1.3586         estimate D2E/DX2                !
 ! R24   R(17,59)                1.5007         estimate D2E/DX2                !
 ! R25   R(19,20)                1.4096         estimate D2E/DX2                !
 ! R26   R(19,27)                1.3961         estimate D2E/DX2                !
 ! R27   R(20,21)                1.4038         estimate D2E/DX2                !
 ! R28   R(20,28)                1.4908         estimate D2E/DX2                !
 ! R29   R(21,23)                1.3924         estimate D2E/DX2                !
 ! R30   R(21,24)                1.0911         estimate D2E/DX2                !
 ! R31   R(22,23)                1.3939         estimate D2E/DX2                !
 ! R32   R(22,26)                1.0902         estimate D2E/DX2                !
 ! R33   R(22,27)                1.3851         estimate D2E/DX2                !
 ! R34   R(23,25)                1.0911         estimate D2E/DX2                !
 ! R35   R(27,39)                1.335          estimate D2E/DX2                !
 ! R36   R(28,29)                1.4018         estimate D2E/DX2                !
 ! R37   R(28,30)                1.4028         estimate D2E/DX2                !
 ! R38   R(29,31)                1.3946         estimate D2E/DX2                !
 ! R39   R(29,32)                1.0923         estimate D2E/DX2                !
 ! R40   R(30,33)                1.3934         estimate D2E/DX2                !
 ! R41   R(30,34)                1.093          estimate D2E/DX2                !
 ! R42   R(31,35)                1.3947         estimate D2E/DX2                !
 ! R43   R(31,36)                1.0915         estimate D2E/DX2                !
 ! R44   R(33,35)                1.3958         estimate D2E/DX2                !
 ! R45   R(33,37)                1.0914         estimate D2E/DX2                !
 ! R46   R(35,38)                1.0915         estimate D2E/DX2                !
 ! R47   R(40,41)                1.1004         estimate D2E/DX2                !
 ! R48   R(40,42)                1.0998         estimate D2E/DX2                !
 ! R49   R(40,43)                1.0969         estimate D2E/DX2                !
 ! R50   R(44,46)                1.5243         estimate D2E/DX2                !
 ! R51   R(44,47)                1.0901         estimate D2E/DX2                !
 ! R52   R(44,48)                1.1009         estimate D2E/DX2                !
 ! R53   R(44,56)                1.464          estimate D2E/DX2                !
 ! R54   R(45,49)                1.5244         estimate D2E/DX2                !
 ! R55   R(45,50)                1.0935         estimate D2E/DX2                !
 ! R56   R(45,51)                1.1009         estimate D2E/DX2                !
 ! R57   R(45,56)                1.46           estimate D2E/DX2                !
 ! R58   R(46,52)                1.1066         estimate D2E/DX2                !
 ! R59   R(46,53)                1.0986         estimate D2E/DX2                !
 ! R60   R(46,57)                1.4106         estimate D2E/DX2                !
 ! R61   R(49,54)                1.108          estimate D2E/DX2                !
 ! R62   R(49,55)                1.0987         estimate D2E/DX2                !
 ! R63   R(49,57)                1.407          estimate D2E/DX2                !
 ! A1    A(2,1,5)              108.8029         estimate D2E/DX2                !
 ! A2    A(1,2,3)              114.8757         estimate D2E/DX2                !
 ! A3    A(1,2,7)              124.16           estimate D2E/DX2                !
 ! A4    A(3,2,7)              120.9617         estimate D2E/DX2                !
 ! A5    A(2,3,4)              102.0442         estimate D2E/DX2                !
 ! A6    A(2,3,8)              109.1884         estimate D2E/DX2                !
 ! A7    A(2,3,9)              108.8644         estimate D2E/DX2                !
 ! A8    A(4,3,8)              114.3338         estimate D2E/DX2                !
 ! A9    A(4,3,9)              114.6785         estimate D2E/DX2                !
 ! A10   A(8,3,9)              107.4575         estimate D2E/DX2                !
 ! A11   A(3,4,5)              103.4743         estimate D2E/DX2                !
 ! A12   A(3,4,10)             113.3765         estimate D2E/DX2                !
 ! A13   A(3,4,11)             114.5616         estimate D2E/DX2                !
 ! A14   A(5,4,10)             108.3096         estimate D2E/DX2                !
 ! A15   A(5,4,11)             109.3629         estimate D2E/DX2                !
 ! A16   A(10,4,11)            107.524          estimate D2E/DX2                !
 ! A17   A(1,5,4)              110.6946         estimate D2E/DX2                !
 ! A18   A(1,5,6)              124.8881         estimate D2E/DX2                !
 ! A19   A(4,5,6)              124.4145         estimate D2E/DX2                !
 ! A20   A(2,7,59)             109.5269         estimate D2E/DX2                !
 ! A21   A(13,12,17)           121.9777         estimate D2E/DX2                !
 ! A22   A(13,12,19)           120.5658         estimate D2E/DX2                !
 ! A23   A(17,12,19)           117.4542         estimate D2E/DX2                !
 ! A24   A(12,13,14)           118.788          estimate D2E/DX2                !
 ! A25   A(12,13,58)           119.8972         estimate D2E/DX2                !
 ! A26   A(14,13,58)           121.2875         estimate D2E/DX2                !
 ! A27   A(13,14,15)           118.6875         estimate D2E/DX2                !
 ! A28   A(13,14,40)           119.8394         estimate D2E/DX2                !
 ! A29   A(15,14,40)           121.452          estimate D2E/DX2                !
 ! A30   A(14,15,16)           120.8342         estimate D2E/DX2                !
 ! A31   A(14,15,18)           118.7851         estimate D2E/DX2                !
 ! A32   A(16,15,18)           120.3469         estimate D2E/DX2                !
 ! A33   A(15,16,17)           118.464          estimate D2E/DX2                !
 ! A34   A(15,16,56)           122.0878         estimate D2E/DX2                !
 ! A35   A(17,16,56)           119.4471         estimate D2E/DX2                !
 ! A36   A(12,17,16)           121.2181         estimate D2E/DX2                !
 ! A37   A(12,17,59)           110.6384         estimate D2E/DX2                !
 ! A38   A(16,17,59)           128.1311         estimate D2E/DX2                !
 ! A39   A(12,19,20)           122.634          estimate D2E/DX2                !
 ! A40   A(12,19,27)           118.8956         estimate D2E/DX2                !
 ! A41   A(20,19,27)           118.4256         estimate D2E/DX2                !
 ! A42   A(19,20,21)           118.7887         estimate D2E/DX2                !
 ! A43   A(19,20,28)           122.0479         estimate D2E/DX2                !
 ! A44   A(21,20,28)           119.1608         estimate D2E/DX2                !
 ! A45   A(20,21,23)           121.2148         estimate D2E/DX2                !
 ! A46   A(20,21,24)           118.826          estimate D2E/DX2                !
 ! A47   A(23,21,24)           119.9507         estimate D2E/DX2                !
 ! A48   A(23,22,26)           122.5893         estimate D2E/DX2                !
 ! A49   A(23,22,27)           118.092          estimate D2E/DX2                !
 ! A50   A(26,22,27)           119.3187         estimate D2E/DX2                !
 ! A51   A(21,23,22)           120.3728         estimate D2E/DX2                !
 ! A52   A(21,23,25)           119.9237         estimate D2E/DX2                !
 ! A53   A(22,23,25)           119.7031         estimate D2E/DX2                !
 ! A54   A(19,27,22)           123.1057         estimate D2E/DX2                !
 ! A55   A(19,27,39)           117.9724         estimate D2E/DX2                !
 ! A56   A(22,27,39)           118.9139         estimate D2E/DX2                !
 ! A57   A(20,28,29)           119.5766         estimate D2E/DX2                !
 ! A58   A(20,28,30)           121.4179         estimate D2E/DX2                !
 ! A59   A(29,28,30)           119.0009         estimate D2E/DX2                !
 ! A60   A(28,29,31)           120.5762         estimate D2E/DX2                !
 ! A61   A(28,29,32)           119.513          estimate D2E/DX2                !
 ! A62   A(31,29,32)           119.9027         estimate D2E/DX2                !
 ! A63   A(28,30,33)           120.2589         estimate D2E/DX2                !
 ! A64   A(28,30,34)           119.6417         estimate D2E/DX2                !
 ! A65   A(33,30,34)           120.0624         estimate D2E/DX2                !
 ! A66   A(29,31,35)           120.0835         estimate D2E/DX2                !
 ! A67   A(29,31,36)           119.7258         estimate D2E/DX2                !
 ! A68   A(35,31,36)           120.1907         estimate D2E/DX2                !
 ! A69   A(30,33,35)           120.4076         estimate D2E/DX2                !
 ! A70   A(30,33,37)           119.3747         estimate D2E/DX2                !
 ! A71   A(35,33,37)           120.2137         estimate D2E/DX2                !
 ! A72   A(31,35,33)           119.6689         estimate D2E/DX2                !
 ! A73   A(31,35,38)           120.1451         estimate D2E/DX2                !
 ! A74   A(33,35,38)           120.1849         estimate D2E/DX2                !
 ! A75   A(14,40,41)           109.875          estimate D2E/DX2                !
 ! A76   A(14,40,42)           110.2456         estimate D2E/DX2                !
 ! A77   A(14,40,43)           111.7273         estimate D2E/DX2                !
 ! A78   A(41,40,42)           107.1673         estimate D2E/DX2                !
 ! A79   A(41,40,43)           108.8172         estimate D2E/DX2                !
 ! A80   A(42,40,43)           108.8861         estimate D2E/DX2                !
 ! A81   A(46,44,47)           110.457          estimate D2E/DX2                !
 ! A82   A(46,44,48)           109.7111         estimate D2E/DX2                !
 ! A83   A(46,44,56)           108.9278         estimate D2E/DX2                !
 ! A84   A(47,44,48)           108.0671         estimate D2E/DX2                !
 ! A85   A(47,44,56)           111.8721         estimate D2E/DX2                !
 ! A86   A(48,44,56)           107.7495         estimate D2E/DX2                !
 ! A87   A(49,45,50)           112.1233         estimate D2E/DX2                !
 ! A88   A(49,45,51)           108.7736         estimate D2E/DX2                !
 ! A89   A(49,45,56)           109.4963         estimate D2E/DX2                !
 ! A90   A(50,45,51)           107.2865         estimate D2E/DX2                !
 ! A91   A(50,45,56)           111.8746         estimate D2E/DX2                !
 ! A92   A(51,45,56)           107.0919         estimate D2E/DX2                !
 ! A93   A(44,46,52)           109.0566         estimate D2E/DX2                !
 ! A94   A(44,46,53)           110.1833         estimate D2E/DX2                !
 ! A95   A(44,46,57)           111.272          estimate D2E/DX2                !
 ! A96   A(52,46,53)           108.1702         estimate D2E/DX2                !
 ! A97   A(52,46,57)           110.7115         estimate D2E/DX2                !
 ! A98   A(53,46,57)           107.39           estimate D2E/DX2                !
 ! A99   A(45,49,54)           109.4168         estimate D2E/DX2                !
 ! A100  A(45,49,55)           110.5466         estimate D2E/DX2                !
 ! A101  A(45,49,57)           110.4917         estimate D2E/DX2                !
 ! A102  A(54,49,55)           108.4535         estimate D2E/DX2                !
 ! A103  A(54,49,57)           110.4711         estimate D2E/DX2                !
 ! A104  A(55,49,57)           107.4236         estimate D2E/DX2                !
 ! A105  A(16,56,44)           123.2103         estimate D2E/DX2                !
 ! A106  A(16,56,45)           122.1102         estimate D2E/DX2                !
 ! A107  A(44,56,45)           109.7308         estimate D2E/DX2                !
 ! A108  A(46,57,49)           112.2877         estimate D2E/DX2                !
 ! A109  L(7,59,17,1,-1)       178.7325         estimate D2E/DX2                !
 ! A110  L(7,59,17,1,-2)       170.928          estimate D2E/DX2                !
 ! D1    D(5,1,2,3)              1.0857         estimate D2E/DX2                !
 ! D2    D(5,1,2,7)           -178.3399         estimate D2E/DX2                !
 ! D3    D(2,1,5,4)              1.1802         estimate D2E/DX2                !
 ! D4    D(2,1,5,6)           -179.4042         estimate D2E/DX2                !
 ! D5    D(1,2,3,4)             -2.8114         estimate D2E/DX2                !
 ! D6    D(1,2,3,8)            118.5452         estimate D2E/DX2                !
 ! D7    D(1,2,3,9)           -124.4165         estimate D2E/DX2                !
 ! D8    D(7,2,3,4)            176.6343         estimate D2E/DX2                !
 ! D9    D(7,2,3,8)            -62.0091         estimate D2E/DX2                !
 ! D10   D(7,2,3,9)             55.0292         estimate D2E/DX2                !
 ! D11   D(1,2,7,59)            19.5782         estimate D2E/DX2                !
 ! D12   D(3,2,7,59)          -159.814          estimate D2E/DX2                !
 ! D13   D(2,3,4,5)              3.0943         estimate D2E/DX2                !
 ! D14   D(2,3,4,10)          -114.0028         estimate D2E/DX2                !
 ! D15   D(2,3,4,11)           122.0647         estimate D2E/DX2                !
 ! D16   D(8,3,4,5)           -114.6373         estimate D2E/DX2                !
 ! D17   D(8,3,4,10)           128.2656         estimate D2E/DX2                !
 ! D18   D(8,3,4,11)             4.3331         estimate D2E/DX2                !
 ! D19   D(9,3,4,5)            120.6027         estimate D2E/DX2                !
 ! D20   D(9,3,4,10)             3.5056         estimate D2E/DX2                !
 ! D21   D(9,3,4,11)          -120.4268         estimate D2E/DX2                !
 ! D22   D(3,4,5,1)             -2.8385         estimate D2E/DX2                !
 ! D23   D(3,4,5,6)            177.7425         estimate D2E/DX2                !
 ! D24   D(10,4,5,1)           117.7618         estimate D2E/DX2                !
 ! D25   D(10,4,5,6)           -61.6572         estimate D2E/DX2                !
 ! D26   D(11,4,5,1)          -125.3363         estimate D2E/DX2                !
 ! D27   D(11,4,5,6)            55.2448         estimate D2E/DX2                !
 ! D28   D(2,7,17,12)           78.084          estimate D2E/DX2                !
 ! D29   D(2,7,17,16)         -100.1098         estimate D2E/DX2                !
 ! D30   D(17,12,13,14)          1.8356         estimate D2E/DX2                !
 ! D31   D(17,12,13,58)        179.9588         estimate D2E/DX2                !
 ! D32   D(19,12,13,14)       -177.6042         estimate D2E/DX2                !
 ! D33   D(19,12,13,58)          0.519          estimate D2E/DX2                !
 ! D34   D(13,12,17,16)         -2.06           estimate D2E/DX2                !
 ! D35   D(13,12,17,59)        179.1245         estimate D2E/DX2                !
 ! D36   D(19,12,17,16)        177.3965         estimate D2E/DX2                !
 ! D37   D(19,12,17,59)         -1.419          estimate D2E/DX2                !
 ! D38   D(13,12,19,20)         61.5501         estimate D2E/DX2                !
 ! D39   D(13,12,19,27)       -115.9761         estimate D2E/DX2                !
 ! D40   D(17,12,19,20)       -117.9144         estimate D2E/DX2                !
 ! D41   D(17,12,19,27)         64.5593         estimate D2E/DX2                !
 ! D42   D(12,13,14,15)         -0.4785         estimate D2E/DX2                !
 ! D43   D(12,13,14,40)        177.8724         estimate D2E/DX2                !
 ! D44   D(58,13,14,15)       -178.5746         estimate D2E/DX2                !
 ! D45   D(58,13,14,40)         -0.2237         estimate D2E/DX2                !
 ! D46   D(13,14,15,16)         -0.6382         estimate D2E/DX2                !
 ! D47   D(13,14,15,18)        177.254          estimate D2E/DX2                !
 ! D48   D(40,14,15,16)       -178.9614         estimate D2E/DX2                !
 ! D49   D(40,14,15,18)         -1.0691         estimate D2E/DX2                !
 ! D50   D(13,14,40,41)        -61.3342         estimate D2E/DX2                !
 ! D51   D(13,14,40,42)         56.5613         estimate D2E/DX2                !
 ! D52   D(13,14,40,43)        177.7841         estimate D2E/DX2                !
 ! D53   D(15,14,40,41)        116.97           estimate D2E/DX2                !
 ! D54   D(15,14,40,42)       -125.1345         estimate D2E/DX2                !
 ! D55   D(15,14,40,43)         -3.9117         estimate D2E/DX2                !
 ! D56   D(14,15,16,17)          0.4653         estimate D2E/DX2                !
 ! D57   D(14,15,16,56)       -179.1673         estimate D2E/DX2                !
 ! D58   D(18,15,16,17)       -177.394          estimate D2E/DX2                !
 ! D59   D(18,15,16,56)          2.9734         estimate D2E/DX2                !
 ! D60   D(15,16,17,12)          0.8693         estimate D2E/DX2                !
 ! D61   D(15,16,17,59)        179.4601         estimate D2E/DX2                !
 ! D62   D(56,16,17,12)       -179.4881         estimate D2E/DX2                !
 ! D63   D(56,16,17,59)         -0.8974         estimate D2E/DX2                !
 ! D64   D(15,16,56,44)       -154.4382         estimate D2E/DX2                !
 ! D65   D(15,16,56,45)         -1.9149         estimate D2E/DX2                !
 ! D66   D(17,16,56,44)         25.9327         estimate D2E/DX2                !
 ! D67   D(17,16,56,45)        178.456          estimate D2E/DX2                !
 ! D68   D(12,19,20,21)       -177.6569         estimate D2E/DX2                !
 ! D69   D(12,19,20,28)          1.7495         estimate D2E/DX2                !
 ! D70   D(27,19,20,21)         -0.1196         estimate D2E/DX2                !
 ! D71   D(27,19,20,28)        179.2869         estimate D2E/DX2                !
 ! D72   D(12,19,27,22)        177.7068         estimate D2E/DX2                !
 ! D73   D(12,19,27,39)         -1.2525         estimate D2E/DX2                !
 ! D74   D(20,19,27,22)          0.0756         estimate D2E/DX2                !
 ! D75   D(20,19,27,39)       -178.8837         estimate D2E/DX2                !
 ! D76   D(19,20,21,23)         -0.0035         estimate D2E/DX2                !
 ! D77   D(19,20,21,24)       -178.9463         estimate D2E/DX2                !
 ! D78   D(28,20,21,23)       -179.4274         estimate D2E/DX2                !
 ! D79   D(28,20,21,24)          1.6298         estimate D2E/DX2                !
 ! D80   D(19,20,28,29)       -131.0722         estimate D2E/DX2                !
 ! D81   D(19,20,28,30)         49.7125         estimate D2E/DX2                !
 ! D82   D(21,20,28,29)         48.3322         estimate D2E/DX2                !
 ! D83   D(21,20,28,30)       -130.8832         estimate D2E/DX2                !
 ! D84   D(20,21,23,22)          0.1772         estimate D2E/DX2                !
 ! D85   D(20,21,23,25)       -179.5996         estimate D2E/DX2                !
 ! D86   D(24,21,23,22)        179.1083         estimate D2E/DX2                !
 ! D87   D(24,21,23,25)         -0.6685         estimate D2E/DX2                !
 ! D88   D(26,22,23,21)        179.8547         estimate D2E/DX2                !
 ! D89   D(26,22,23,25)         -0.368          estimate D2E/DX2                !
 ! D90   D(27,22,23,21)         -0.2186         estimate D2E/DX2                !
 ! D91   D(27,22,23,25)        179.5587         estimate D2E/DX2                !
 ! D92   D(23,22,27,19)          0.0939         estimate D2E/DX2                !
 ! D93   D(23,22,27,39)        179.0439         estimate D2E/DX2                !
 ! D94   D(26,22,27,19)       -179.977          estimate D2E/DX2                !
 ! D95   D(26,22,27,39)         -1.0269         estimate D2E/DX2                !
 ! D96   D(20,28,29,31)       -179.8483         estimate D2E/DX2                !
 ! D97   D(20,28,29,32)          1.1948         estimate D2E/DX2                !
 ! D98   D(30,28,29,31)         -0.6139         estimate D2E/DX2                !
 ! D99   D(30,28,29,32)       -179.5708         estimate D2E/DX2                !
 ! D100  D(20,28,30,33)        179.3928         estimate D2E/DX2                !
 ! D101  D(20,28,30,34)          1.6037         estimate D2E/DX2                !
 ! D102  D(29,28,30,33)          0.1731         estimate D2E/DX2                !
 ! D103  D(29,28,30,34)       -177.6161         estimate D2E/DX2                !
 ! D104  D(28,29,31,35)          0.497          estimate D2E/DX2                !
 ! D105  D(28,29,31,36)       -179.4457         estimate D2E/DX2                !
 ! D106  D(32,29,31,35)        179.4498         estimate D2E/DX2                !
 ! D107  D(32,29,31,36)         -0.4929         estimate D2E/DX2                !
 ! D108  D(28,30,33,35)          0.3861         estimate D2E/DX2                !
 ! D109  D(28,30,33,37)       -178.8936         estimate D2E/DX2                !
 ! D110  D(34,30,33,35)        178.1659         estimate D2E/DX2                !
 ! D111  D(34,30,33,37)         -1.1138         estimate D2E/DX2                !
 ! D112  D(29,31,35,33)          0.0668         estimate D2E/DX2                !
 ! D113  D(29,31,35,38)        179.6924         estimate D2E/DX2                !
 ! D114  D(36,31,35,33)       -179.9907         estimate D2E/DX2                !
 ! D115  D(36,31,35,38)         -0.3652         estimate D2E/DX2                !
 ! D116  D(30,33,35,31)         -0.5073         estimate D2E/DX2                !
 ! D117  D(30,33,35,38)        179.8674         estimate D2E/DX2                !
 ! D118  D(37,33,35,31)        178.7663         estimate D2E/DX2                !
 ! D119  D(37,33,35,38)         -0.859          estimate D2E/DX2                !
 ! D120  D(47,44,46,52)         57.8065         estimate D2E/DX2                !
 ! D121  D(47,44,46,53)        -60.7802         estimate D2E/DX2                !
 ! D122  D(47,44,46,57)       -179.7811         estimate D2E/DX2                !
 ! D123  D(48,44,46,52)        176.8356         estimate D2E/DX2                !
 ! D124  D(48,44,46,53)         58.2489         estimate D2E/DX2                !
 ! D125  D(48,44,46,57)        -60.752          estimate D2E/DX2                !
 ! D126  D(56,44,46,52)        -65.4412         estimate D2E/DX2                !
 ! D127  D(56,44,46,53)        175.9721         estimate D2E/DX2                !
 ! D128  D(56,44,46,57)         56.9712         estimate D2E/DX2                !
 ! D129  D(46,44,56,16)         97.5749         estimate D2E/DX2                !
 ! D130  D(46,44,56,45)        -57.8942         estimate D2E/DX2                !
 ! D131  D(47,44,56,16)        -24.8234         estimate D2E/DX2                !
 ! D132  D(47,44,56,45)        179.7075         estimate D2E/DX2                !
 ! D133  D(48,44,56,16)       -143.4687         estimate D2E/DX2                !
 ! D134  D(48,44,56,45)         61.0622         estimate D2E/DX2                !
 ! D135  D(50,45,49,54)        -60.6912         estimate D2E/DX2                !
 ! D136  D(50,45,49,55)         58.6847         estimate D2E/DX2                !
 ! D137  D(50,45,49,57)        177.4649         estimate D2E/DX2                !
 ! D138  D(51,45,49,54)       -179.1794         estimate D2E/DX2                !
 ! D139  D(51,45,49,55)        -59.8034         estimate D2E/DX2                !
 ! D140  D(51,45,49,57)         58.9768         estimate D2E/DX2                !
 ! D141  D(56,45,49,54)         64.0996         estimate D2E/DX2                !
 ! D142  D(56,45,49,55)       -176.5245         estimate D2E/DX2                !
 ! D143  D(56,45,49,57)        -57.7443         estimate D2E/DX2                !
 ! D144  D(49,45,56,16)        -97.1879         estimate D2E/DX2                !
 ! D145  D(49,45,56,44)         58.6006         estimate D2E/DX2                !
 ! D146  D(50,45,56,16)         27.7471         estimate D2E/DX2                !
 ! D147  D(50,45,56,44)       -176.4643         estimate D2E/DX2                !
 ! D148  D(51,45,56,16)        145.0343         estimate D2E/DX2                !
 ! D149  D(51,45,56,44)        -59.1771         estimate D2E/DX2                !
 ! D150  D(44,46,57,49)        -57.6029         estimate D2E/DX2                !
 ! D151  D(52,46,57,49)         63.8491         estimate D2E/DX2                !
 ! D152  D(53,46,57,49)       -178.2612         estimate D2E/DX2                !
 ! D153  D(45,49,57,46)         57.5374         estimate D2E/DX2                !
 ! D154  D(54,49,57,46)        -63.6829         estimate D2E/DX2                !
 ! D155  D(55,49,57,46)        178.1999         estimate D2E/DX2                !
 --------------------------------------------------------------------------------
 Trust Radius=3.00D-01 FncErr=1.00D-07 GrdErr=1.00D-06 EigMax=2.50D+02 EigMin=1.00D-04
 Number of steps in this run=    338 maximum allowed number of steps=    354.
 GradGradGradGradGradGradGradGradGradGradGradGradGradGradGradGradGradGrad

 Leave Link  103 at Thu Feb 27 17:08:12 2025, MaxMem=  4294967296 cpu:               0.6 elap:               0.0
 (Enter /ihome/crc/install/gaussian/c01/avx2/tar/g16/l202.exe)
 Symmetry turned off by external request.
 Stoichiometry    C26H26FN3O3
 Framework group  C1[X(C26H26FN3O3)]
 Deg. of freedom   171
 Full point group                 C1      NOp   1
                          Input orientation:                          
 ---------------------------------------------------------------------
 Center     Atomic      Atomic             Coordinates (Angstroms)
 Number     Number       Type             X           Y           Z
 ---------------------------------------------------------------------
      1          7           0       -1.230120   -7.027259   -5.055892
      2          6           0       -0.210633   -7.416242   -4.321363
      3          6           0       -0.581478   -8.221053   -3.090159
      4          6           0       -2.102194   -8.209057   -3.149092
      5          6           0       -2.403943   -7.461869   -4.457598
      6          8           0       -3.514826   -7.271718   -4.895364
      7          8           0        1.001737   -7.147895   -4.585458
      8          1           0       -0.133041   -9.222357   -3.164314
      9          1           0       -0.152461   -7.732274   -2.203332
     10          1           0       -2.566535   -7.655549   -2.320295
     11          1           0       -2.565642   -9.204259   -3.182834
     12          6           0        0.863339   -4.025384   -5.116911
     13          6           0        0.845404   -2.723070   -5.560284
     14          6           0        0.985074   -2.473988   -6.940420
     15          6           0        1.144773   -3.546896   -7.794743
     16          6           0        1.181910   -4.877523   -7.294680
     17          7           0        1.047537   -5.069551   -5.962580
     18          1           0        1.207277   -3.360085   -8.863209
     19          6           0        0.665605   -4.337512   -3.671517
     20          6           0       -0.517874   -4.011836   -2.978492
     21          6           0       -0.598527   -4.298222   -1.606562
     22          6           0        1.638429   -5.214956   -1.606686
     23          6           0        0.463186   -4.892918   -0.929907
     24          1           0       -1.520681   -4.062346   -1.073247
     25          1           0        0.375296   -5.112180    0.135279
     26          1           0        2.492336   -5.678874   -1.112517
     27          6           0        1.710461   -4.930405   -2.960305
     28          6           0       -1.677295   -3.362684   -3.654458
     29          6           0       -2.273100   -2.234038   -3.074640
     30          6           0       -2.199612   -3.866353   -4.855065
     31          6           0       -3.360672   -1.612243   -3.687437
     32          1           0       -1.868805   -1.830628   -2.143579
     33          6           0       -3.292099   -3.247862   -5.459674
     34          1           0       -1.768154   -4.768691   -5.295856
     35          6           0       -3.872686   -2.117404   -4.882387
     36          1           0       -3.808201   -0.728818   -3.228492
     37          1           0       -3.698193   -3.662578   -6.383986
     38          1           0       -4.726988   -1.634537   -5.360235
     39          9           0        2.835473   -5.214264   -3.620568
     40          6           0        0.920978   -1.067200   -7.454797
     41          1           0       -0.062303   -0.629530   -7.225671
     42          1           0        1.677700   -0.444613   -6.955583
     43          1           0        1.083890   -1.023326   -8.538599
     44          6           0        0.878756   -7.294647   -7.778185
     45          6           0        1.472398   -5.813122   -9.558917
     46          6           0       -0.459892   -7.529810   -8.468164
     47          1           0        0.782759   -7.437139   -6.701686
     48          1           0        1.621442   -8.015595   -8.153121
     49          6           0        0.117394   -6.074013  -10.206661
     50          1           0        1.884746   -4.841238   -9.843806
     51          1           0        2.182222   -6.582386   -9.900136
     52          1           0       -1.211986   -6.838382   -8.042852
     53          1           0       -0.801821   -8.558749   -8.291429
     54          1           0       -0.601977   -5.296484   -9.881788
     55          1           0        0.199688   -6.035948  -11.301592
     56          7           0        1.354456   -5.950452   -8.110141
     57          8           0       -0.354019   -7.354588   -9.863870
     58          1           0        0.694034   -1.909558   -4.850684
     59          1           0        1.043094   -6.367434   -5.209293
 ---------------------------------------------------------------------
 Rotational constants (GHZ):           0.1626488           0.1212960           0.1089231
 Leave Link  202 at Thu Feb 27 17:08:12 2025, MaxMem=  4294967296 cpu:               0.7 elap:               0.0
 (Enter /ihome/crc/install/gaussian/c01/avx2/tar/g16/l301.exe)
 General basis read from cards:  (5D, 7F)
 Centers:       2      3      4      5     12     13     14     15     16     19
 Centers:      20     21     22     23     27     28     29     30     31     33
 Centers:      35     40     44     45     46     49      8      9     10     11
 Centers:      18     24     25     26     32     34     36     37     38     41
 Centers:      42     43     47     48     50     51     52     53     54     55
 Centers:      58     59      1     17     56     39      6      7     57
 def2svp
 ****
 ======================================================================================================
                                       Pseudopotential Parameters
 ======================================================================================================
  Center     Atomic      Valence      Angular      Power
  Number     Number     Electrons     Momentum     of R      Exponent        Coefficient   SO-Coeffient
 ======================================================================================================
    1          7
                                   No pseudopotential on this center.
    2          6
                                   No pseudopotential on this center.
    3          6
                                   No pseudopotential on this center.
    4          6
                                   No pseudopotential on this center.
    5          6
                                   No pseudopotential on this center.
    6          8
                                   No pseudopotential on this center.
    7          8
                                   No pseudopotential on this center.
    8          1
                                   No pseudopotential on this center.
    9          1
                                   No pseudopotential on this center.
   10          1
                                   No pseudopotential on this center.
   11          1
                                   No pseudopotential on this center.
   12          6
                                   No pseudopotential on this center.
   13          6
                                   No pseudopotential on this center.
   14          6
                                   No pseudopotential on this center.
   15          6
                                   No pseudopotential on this center.
   16          6
                                   No pseudopotential on this center.
   17          7
                                   No pseudopotential on this center.
   18          1
                                   No pseudopotential on this center.
   19          6
                                   No pseudopotential on this center.
   20          6
                                   No pseudopotential on this center.
   21          6
                                   No pseudopotential on this center.
   22          6
                                   No pseudopotential on this center.
   23          6
                                   No pseudopotential on this center.
   24          1
                                   No pseudopotential on this center.
   25          1
                                   No pseudopotential on this center.
   26          1
                                   No pseudopotential on this center.
   27          6
                                   No pseudopotential on this center.
   28          6
                                   No pseudopotential on this center.
   29          6
                                   No pseudopotential on this center.
   30          6
                                   No pseudopotential on this center.
   31          6
                                   No pseudopotential on this center.
   32          1
                                   No pseudopotential on this center.
   33          6
                                   No pseudopotential on this center.
   34          1
                                   No pseudopotential on this center.
   35          6
                                   No pseudopotential on this center.
   36          1
                                   No pseudopotential on this center.
   37          1
                                   No pseudopotential on this center.
   38          1
                                   No pseudopotential on this center.
   39          9
                                   No pseudopotential on this center.
   40          6
                                   No pseudopotential on this center.
   41          1
                                   No pseudopotential on this center.
   42          1
                                   No pseudopotential on this center.
   43          1
                                   No pseudopotential on this center.
   44          6
                                   No pseudopotential on this center.
   45          6
                                   No pseudopotential on this center.
   46          6
                                   No pseudopotential on this center.
   47          1
                                   No pseudopotential on this center.
   48          1
                                   No pseudopotential on this center.
   49          6
                                   No pseudopotential on this center.
   50          1
                                   No pseudopotential on this center.
   51          1
                                   No pseudopotential on this center.
   52          1
                                   No pseudopotential on this center.
   53          1
                                   No pseudopotential on this center.
   54          1
                                   No pseudopotential on this center.
   55          1
                                   No pseudopotential on this center.
   56          7
                                   No pseudopotential on this center.
   57          8
                                   No pseudopotential on this center.
   58          1
                                   No pseudopotential on this center.
   59          1
                                   No pseudopotential on this center.
 ======================================================================================================
 Ernie: Thresh=  0.10000D-02 Tol=  0.10000D-05 Strict=F.
   592 basis functions,  1007 primitive gaussians,   625 cartesian basis functions
   118 alpha electrons      118 beta electrons
       nuclear repulsion energy      3591.7057734180 Hartrees.
 IExCor= 4336 DFT=T Ex+Corr=M062X ExCW=0 ScaHFX=  0.540000
 ScaDFX=  1.000000  1.000000  1.000000  1.000000 ScalE2=  1.000000  1.000000
 IRadAn=      5 IRanWt=     -1 IRanGd=            0 ICorTp=0 IEmpDi=131
 NAtoms=   59 NActive=   59 NUniq=   59 SFac= 1.00D+00 NAtFMM=   60 NAOKFM=F Big=F
 Integral buffers will be    131072 words long.
 Raffenetti 2 integral format.
 Two-electron integral symmetry is turned off.
 R6Disp:  Grimme-D3 Dispersion energy=       -0.0064872173 Hartrees.
 Nuclear repulsion after empirical dispersion term =     3591.6992862008 Hartrees.
 ------------------------------------------------------------------------------
 Polarizable Continuum Model (PCM)
 =================================
 Model                : PCM.
 Atomic radii         : SMD-Coulomb.
 Polarization charges : Total charges.
 Charge compensation  : None.
 Solution method      : On-the-fly selection.
 Cavity type          : VdW (van der Waals Surface) (Alpha=1.000).
 Cavity algorithm     : GePol (No added spheres)
                        Default sphere list used, NSphG=   59.
                        Lebedev-Laikov grids with approx.  5.0 points / Ang**2.
                        Smoothing algorithm: York/Karplus (Gamma=1.0000).
                        Polarization charges: spherical gaussians, with
                                              point-specific exponents (IZeta= 3).
                        Self-potential: point-specific (ISelfS= 7).
                        Self-field    : sphere-specific E.n sum rule (ISelfD= 2).
 1st derivatives      : Analytical E(r).r(x)/FMM algorithm (CHGder, D1EAlg=3).
                        Cavity 1st derivative terms included.
 Solvent              : PropylEthanoate, Eps=   5.520500 Eps(inf)=   1.916010
 ------------------------------------------------------------------------------
 GePol: Number of generator spheres                  =      59
 GePol: Total number of spheres                      =      59
 GePol: Number of exposed spheres                    =      58 ( 98.31%)
 GePol: Number of points                             =    4283
 GePol: Average weight of points                     =       0.11
 GePol: Minimum weight of points                     =   0.59D-11
 GePol: Maximum weight of points                     =    0.21501
 GePol: Number of points with low weight             =     308
 GePol: Fraction of low-weight points (<1% of avg)   =       7.19%
 GePol: Cavity surface area                          =    470.727 Ang**2
 GePol: Cavity volume                                =    493.697 Ang**3
 ------------------------------------------------------------------------------
 Atomic radii for non-electrostatic terms: SMD-CDS.
 ------------------------------------------------------------------------------
 PCM non-electrostatic energy =        -0.0141583613 Hartrees.
 Nuclear repulsion after PCM non-electrostatic terms =     3591.6851278395 Hartrees.
 Leave Link  301 at Thu Feb 27 17:08:12 2025, MaxMem=  4294967296 cpu:               2.2 elap:               0.1
 (Enter /ihome/crc/install/gaussian/c01/avx2/tar/g16/l302.exe)
 NPDir=0 NMtPBC=     1 NCelOv=     1 NCel=       1 NClECP=     1 NCelD=      1
         NCelK=      1 NCelE2=     1 NClLst=     1 CellRange=     0.0.
 One-electron integrals computed using PRISM.
   1 Symmetry operations used in ECPInt.
 ECPInt:  NShTT=   38226 NPrTT=  139108 LenC2=   33746 LenP2D=   81020.
 LDataN:  DoStor=T MaxTD1= 4 Len=   56
 NBasis=   592 RedAO= T EigKep=  2.14D-04  NBF=   592
 NBsUse=   592 1.00D-06 EigRej= -1.00D+00 NBFU=   592
 Precomputing XC quadrature grid using
 IXCGrd= 4 IRadAn=           5 IRanWt=          -1 IRanGd=           0 AccXCQ= 0.00D+00.
 Generated NRdTot=       0 NPtTot=           0 NUsed=           0 NTot=          32
 NSgBfM=   620   620   620   620   620 MxSgAt=    59 MxSgA2=    59.
 Leave Link  302 at Thu Feb 27 17:08:13 2025, MaxMem=  4294967296 cpu:              20.4 elap:               0.7
 (Enter /ihome/crc/install/gaussian/c01/avx2/tar/g16/l303.exe)
 DipDrv:  MaxL=1.
 Leave Link  303 at Thu Feb 27 17:08:13 2025, MaxMem=  4294967296 cpu:               2.4 elap:               0.1
 (Enter /ihome/crc/install/gaussian/c01/avx2/tar/g16/l401.exe)
 ExpMin= 1.22D-01 ExpMax= 2.89D+03 ExpMxC= 4.35D+02 IAcc=3 IRadAn=         5 AccDes= 0.00D+00
 Harris functional with IExCor= 1009 and IRadAn=       5 diagonalized for initial guess.
 HarFok:  IExCor= 1009 AccDes= 0.00D+00 IRadAn=         5 IDoV= 1 UseB2=F ITyADJ=14
 ICtDFT=  3500011 ScaDFX=  1.000000  1.000000  1.000000  1.000000
 FoFCou: FMM=F IPFlag=           0 FMFlag=      100000 FMFlg1=           0
         NFxFlg=           0 DoJE=T BraDBF=F KetDBF=T FulRan=T
         wScrn=  0.000000 ICntrl=       500 IOpCl=  0 I1Cent=   200000004 NGrid=           0
         NMat0=    1 NMatS0=      1 NMatT0=    0 NMatD0=    1 NMtDS0=    0 NMtDT0=    0
 Symmetry not used in FoFCou.
 Harris En= -1493.74360799517    
 JPrj=0 DoOrth=F DoCkMO=F.
 Leave Link  401 at Thu Feb 27 17:08:14 2025, MaxMem=  4294967296 cpu:              42.5 elap:               1.4
 (Enter /ihome/crc/install/gaussian/c01/avx2/tar/g16/l502.exe)
 Two-electron integral symmetry not used.
 Closed shell SCF:
 Using DIIS extrapolation, IDIIS=  1040.
 NGot=  4294967296 LenX=  4294159569 LenY=  4293768319
 Requested convergence on RMS density matrix=1.00D-08 within 128 cycles.
 Requested convergence on MAX density matrix=1.00D-06.
 Requested convergence on             energy=1.00D-06.
 No special actions if energy rises.
 Fock matrices will be formed incrementally for  20 cycles.

 Cycle   1  Pass 1  IDiag  1:
 FoFJK:  IHMeth= 1 ICntrl=       0 DoSepK=F KAlg= 0 I1Cent=           0 FoldK=F
 IRaf= 800000000 NMat=       1 IRICut=       1 DoRegI=T DoRafI=F ISym2E= 0 IDoP0=0 IntGTp=1.
 FoFCou: FMM=F IPFlag=           0 FMFlag=      100000 FMFlg1=           0
         NFxFlg=           0 DoJE=F BraDBF=F KetDBF=F FulRan=T
         wScrn=  0.000000 ICntrl=         0 IOpCl=  0 I1Cent=           0 NGrid=           0
         NMat0=    1 NMatS0=      1 NMatT0=    0 NMatD0=    1 NMtDS0=    0 NMtDT0=    0
 Symmetry not used in FoFCou.
 Inv3:  Mode=1 IEnd=    55032267.
 Iteration    1 A*A^-1 deviation from unit magnitude is 4.00D-15 for   2872.
 Iteration    1 A*A^-1 deviation from orthogonality  is 3.35D-15 for   1544    550.
 Iteration    1 A^-1*A deviation from unit magnitude is 4.44D-15 for   2872.
 Iteration    1 A^-1*A deviation from orthogonality  is 1.06D-13 for   1560   1520.
 E= -1493.93881558715    
 DIIS: error= 2.26D-02 at cycle   1 NSaved=   1.
 NSaved= 1 IEnMin= 1 EnMin= -1493.93881558715     IErMin= 1 ErrMin= 2.26D-02
 ErrMax= 2.26D-02  0.00D+00 EMaxC= 1.00D-01 BMatC= 6.36D-01 BMatP= 6.36D-01
 IDIUse=3 WtCom= 7.74D-01 WtEn= 2.26D-01
 Coeff-Com:  0.100D+01
 Coeff-En:   0.100D+01
 Coeff:      0.100D+01
 Gap=     0.278 Goal=   None    Shift=    0.000
 GapD=    0.278 DampG=1.000 DampE=0.500 DampFc=0.5000 IDamp=-1.
 Damping current iteration by 5.00D-01
 RMSDP=3.09D-03 MaxDP=2.73D-01              OVMax= 1.78D-01

 Cycle   2  Pass 1  IDiag  1:
 RMSU=  1.51D-03    CP:  9.78D-01
 E= -1494.25110619910     Delta-E=       -0.312290611942 Rises=F Damp=T
 DIIS: error= 4.48D-03 at cycle   2 NSaved=   2.
 NSaved= 2 IEnMin= 2 EnMin= -1494.25110619910     IErMin= 2 ErrMin= 4.48D-03
 ErrMax= 4.48D-03  0.00D+00 EMaxC= 1.00D-01 BMatC= 5.45D-02 BMatP= 6.36D-01
 IDIUse=3 WtCom= 9.55D-01 WtEn= 4.48D-02
 Coeff-Com: -0.108D+00 0.111D+01
 Coeff-En:   0.000D+00 0.100D+01
 Coeff:     -0.104D+00 0.110D+01
 Gap=     0.341 Goal=   None    Shift=    0.000
 RMSDP=9.60D-04 MaxDP=7.79D-02 DE=-3.12D-01 OVMax= 9.70D-02

 Cycle   3  Pass 1  IDiag  1:
 RMSU=  9.21D-04    CP:  9.64D-01  1.11D+00
 E= -1494.52799837867     Delta-E=       -0.276892179578 Rises=F Damp=F
 DIIS: error= 8.40D-03 at cycle   3 NSaved=   3.
 NSaved= 3 IEnMin= 3 EnMin= -1494.52799837867     IErMin= 2 ErrMin= 4.48D-03
 ErrMax= 8.40D-03  0.00D+00 EMaxC= 1.00D-01 BMatC= 2.53D-02 BMatP= 5.45D-02
 IDIUse=3 WtCom= 9.16D-01 WtEn= 8.40D-02
 Coeff-Com: -0.106D+00 0.473D+00 0.633D+00
 Coeff-En:   0.000D+00 0.000D+00 0.100D+01
 Coeff:     -0.975D-01 0.434D+00 0.664D+00
 Gap=     0.240 Goal=   None    Shift=    0.000
 RMSDP=4.37D-04 MaxDP=3.76D-02 DE=-2.77D-01 OVMax= 4.72D-02

 Cycle   4  Pass 1  IDiag  1:
 RMSU=  2.88D-04    CP:  9.66D-01  1.21D+00  6.85D-01
 E= -1494.54569941191     Delta-E=       -0.017701033234 Rises=F Damp=F
 DIIS: error= 3.88D-03 at cycle   4 NSaved=   4.
 NSaved= 4 IEnMin= 4 EnMin= -1494.54569941191     IErMin= 4 ErrMin= 3.88D-03
 ErrMax= 3.88D-03  0.00D+00 EMaxC= 1.00D-01 BMatC= 5.34D-03 BMatP= 2.53D-02
 IDIUse=3 WtCom= 9.61D-01 WtEn= 3.88D-02
 Coeff-Com: -0.298D-01 0.851D-01 0.345D+00 0.600D+00
 Coeff-En:   0.000D+00 0.000D+00 0.155D+00 0.845D+00
 Coeff:     -0.287D-01 0.818D-01 0.337D+00 0.609D+00
 Gap=     0.240 Goal=   None    Shift=    0.000
 RMSDP=1.63D-04 MaxDP=1.50D-02 DE=-1.77D-02 OVMax= 1.25D-02

 Cycle   5  Pass 1  IDiag  1:
 RMSU=  7.24D-05    CP:  9.65D-01  1.18D+00  7.86D-01  6.42D-01
 E= -1494.55009973800     Delta-E=       -0.004400326088 Rises=F Damp=F
 DIIS: error= 7.87D-04 at cycle   5 NSaved=   5.
 NSaved= 5 IEnMin= 5 EnMin= -1494.55009973800     IErMin= 5 ErrMin= 7.87D-04
 ErrMax= 7.87D-04  0.00D+00 EMaxC= 1.00D-01 BMatC= 2.04D-04 BMatP= 5.34D-03
 IDIUse=3 WtCom= 9.92D-01 WtEn= 7.87D-03
 Coeff-Com: -0.722D-02 0.122D-01 0.118D+00 0.272D+00 0.605D+00
 Coeff-En:   0.000D+00 0.000D+00 0.000D+00 0.000D+00 0.100D+01
 Coeff:     -0.717D-02 0.121D-01 0.117D+00 0.270D+00 0.608D+00
 Gap=     0.239 Goal=   None    Shift=    0.000
 RMSDP=3.14D-05 MaxDP=1.96D-03 DE=-4.40D-03 OVMax= 3.30D-03

 Cycle   6  Pass 1  IDiag  1:
 RMSU=  2.30D-05    CP:  9.65D-01  1.18D+00  7.90D-01  6.75D-01  7.44D-01
 E= -1494.55026186826     Delta-E=       -0.000162130260 Rises=F Damp=F
 DIIS: error= 1.76D-04 at cycle   6 NSaved=   6.
 NSaved= 6 IEnMin= 6 EnMin= -1494.55026186826     IErMin= 6 ErrMin= 1.76D-04
 ErrMax= 1.76D-04  0.00D+00 EMaxC= 1.00D-01 BMatC= 1.64D-05 BMatP= 2.04D-04
 IDIUse=3 WtCom= 9.98D-01 WtEn= 1.76D-03
 Coeff-Com: -0.553D-03-0.177D-02 0.234D-01 0.648D-01 0.264D+00 0.650D+00
 Coeff-En:   0.000D+00 0.000D+00 0.000D+00 0.000D+00 0.000D+00 0.100D+01
 Coeff:     -0.552D-03-0.177D-02 0.234D-01 0.647D-01 0.264D+00 0.650D+00
 Gap=     0.240 Goal=   None    Shift=    0.000
 RMSDP=9.82D-06 MaxDP=6.78D-04 DE=-1.62D-04 OVMax= 1.27D-03

 Cycle   7  Pass 1  IDiag  1:
 RMSU=  7.72D-06    CP:  9.65D-01  1.18D+00  7.93D-01  6.77D-01  8.00D-01
                    CP:  8.43D-01
 E= -1494.55027701759     Delta-E=       -0.000015149331 Rises=F Damp=F
 DIIS: error= 5.82D-05 at cycle   7 NSaved=   7.
 NSaved= 7 IEnMin= 7 EnMin= -1494.55027701759     IErMin= 7 ErrMin= 5.82D-05
 ErrMax= 5.82D-05  0.00D+00 EMaxC= 1.00D-01 BMatC= 1.71D-06 BMatP= 1.64D-05
 IDIUse=1 WtCom= 1.00D+00 WtEn= 0.00D+00
 Coeff-Com:  0.701D-03-0.222D-02-0.359D-02-0.730D-02 0.312D-01 0.254D+00
 Coeff-Com:  0.727D+00
 Coeff:      0.701D-03-0.222D-02-0.359D-02-0.730D-02 0.312D-01 0.254D+00
 Coeff:      0.727D+00
 Gap=     0.240 Goal=   None    Shift=    0.000
 RMSDP=4.29D-06 MaxDP=3.75D-04 DE=-1.51D-05 OVMax= 3.50D-04

 Cycle   8  Pass 1  IDiag  1:
 RMSU=  2.98D-06    CP:  9.65D-01  1.18D+00  7.95D-01  6.79D-01  8.17D-01
                    CP:  9.28D-01  9.60D-01
 E= -1494.55027885521     Delta-E=       -0.000001837618 Rises=F Damp=F
 DIIS: error= 1.62D-05 at cycle   8 NSaved=   8.
 NSaved= 8 IEnMin= 8 EnMin= -1494.55027885521     IErMin= 8 ErrMin= 1.62D-05
 ErrMax= 1.62D-05  0.00D+00 EMaxC= 1.00D-01 BMatC= 2.24D-07 BMatP= 1.71D-06
 IDIUse=1 WtCom= 1.00D+00 WtEn= 0.00D+00
 Coeff-Com:  0.460D-03-0.781D-03-0.498D-02-0.144D-01-0.321D-01-0.279D-02
 Coeff-Com:  0.274D+00 0.781D+00
 Coeff:      0.460D-03-0.781D-03-0.498D-02-0.144D-01-0.321D-01-0.279D-02
 Coeff:      0.274D+00 0.781D+00
 Gap=     0.240 Goal=   None    Shift=    0.000
 RMSDP=1.81D-06 MaxDP=1.75D-04 DE=-1.84D-06 OVMax= 2.11D-04

 Cycle   9  Pass 1  IDiag  1:
 RMSU=  9.77D-07    CP:  9.65D-01  1.18D+00  7.95D-01  6.78D-01  8.26D-01
                    CP:  9.61D-01  1.06D+00  9.63D-01
 E= -1494.55027914644     Delta-E=       -0.000000291233 Rises=F Damp=F
 DIIS: error= 4.83D-06 at cycle   9 NSaved=   9.
 NSaved= 9 IEnMin= 9 EnMin= -1494.55027914644     IErMin= 9 ErrMin= 4.83D-06
 ErrMax= 4.83D-06  0.00D+00 EMaxC= 1.00D-01 BMatC= 2.52D-08 BMatP= 2.24D-07
 IDIUse=1 WtCom= 1.00D+00 WtEn= 0.00D+00
 Coeff-Com:  0.137D-03-0.166D-03-0.145D-02-0.491D-02-0.145D-01-0.192D-01
 Coeff-Com:  0.351D-01 0.295D+00 0.710D+00
 Coeff:      0.137D-03-0.166D-03-0.145D-02-0.491D-02-0.145D-01-0.192D-01
 Coeff:      0.351D-01 0.295D+00 0.710D+00
 Gap=     0.240 Goal=   None    Shift=    0.000
 RMSDP=5.41D-07 MaxDP=5.02D-05 DE=-2.91D-07 OVMax= 4.46D-05

 Cycle  10  Pass 1  IDiag  1:
 RMSU=  3.37D-07    CP:  9.65D-01  1.18D+00  7.96D-01  6.78D-01  8.28D-01
                    CP:  9.67D-01  1.08D+00  1.04D+00  1.02D+00
 E= -1494.55027917427     Delta-E=       -0.000000027827 Rises=F Damp=F
 DIIS: error= 1.77D-06 at cycle  10 NSaved=  10.
 NSaved=10 IEnMin=10 EnMin= -1494.55027917427     IErMin=10 ErrMin= 1.77D-06
 ErrMax= 1.77D-06  0.00D+00 EMaxC= 1.00D-01 BMatC= 2.87D-09 BMatP= 2.52D-08
 IDIUse=1 WtCom= 1.00D+00 WtEn= 0.00D+00
 Coeff-Com: -0.246D-04 0.606D-04 0.482D-03 0.899D-03 0.841D-03-0.393D-02
 Coeff-Com: -0.389D-01-0.327D-01 0.222D+00 0.851D+00
 Coeff:     -0.246D-04 0.606D-04 0.482D-03 0.899D-03 0.841D-03-0.393D-02
 Coeff:     -0.389D-01-0.327D-01 0.222D+00 0.851D+00
 Gap=     0.240 Goal=   None    Shift=    0.000
 RMSDP=2.37D-07 MaxDP=2.32D-05 DE=-2.78D-08 OVMax= 2.86D-05

 Cycle  11  Pass 1  IDiag  1:
 RMSU=  1.20D-07    CP:  9.65D-01  1.18D+00  7.96D-01  6.78D-01  8.29D-01
                    CP:  9.69D-01  1.09D+00  1.08D+00  1.13D+00  9.78D-01
 E= -1494.55027917865     Delta-E=       -0.000000004381 Rises=F Damp=F
 DIIS: error= 3.86D-07 at cycle  11 NSaved=  11.
 NSaved=11 IEnMin=11 EnMin= -1494.55027917865     IErMin=11 ErrMin= 3.86D-07
 ErrMax= 3.86D-07  0.00D+00 EMaxC= 1.00D-01 BMatC= 3.40D-10 BMatP= 2.87D-09
 IDIUse=1 WtCom= 1.00D+00 WtEn= 0.00D+00
 Coeff-Com: -0.189D-04 0.334D-04 0.307D-03 0.729D-03 0.143D-02 0.333D-03
 Coeff-Com: -0.178D-01-0.358D-01 0.125D-01 0.322D+00 0.716D+00
 Coeff:     -0.189D-04 0.334D-04 0.307D-03 0.729D-03 0.143D-02 0.333D-03
 Coeff:     -0.178D-01-0.358D-01 0.125D-01 0.322D+00 0.716D+00
 Gap=     0.240 Goal=   None    Shift=    0.000
 RMSDP=6.54D-08 MaxDP=4.29D-06 DE=-4.38D-09 OVMax= 8.23D-06

 Cycle  12  Pass 1  IDiag  1:
 RMSU=  3.89D-08    CP:  9.65D-01  1.18D+00  7.96D-01  6.78D-01  8.29D-01
                    CP:  9.70D-01  1.09D+00  1.08D+00  1.15D+00  1.07D+00
                    CP:  9.14D-01
 E= -1494.55027917908     Delta-E=       -0.000000000427 Rises=F Damp=F
 DIIS: error= 1.80D-07 at cycle  12 NSaved=  12.
 NSaved=12 IEnMin=12 EnMin= -1494.55027917908     IErMin=12 ErrMin= 1.80D-07
 ErrMax= 1.80D-07  0.00D+00 EMaxC= 1.00D-01 BMatC= 5.51D-11 BMatP= 3.40D-10
 IDIUse=1 WtCom= 1.00D+00 WtEn= 0.00D+00
 Coeff-Com: -0.521D-05 0.670D-05 0.826D-04 0.229D-03 0.553D-03 0.699D-03
 Coeff-Com: -0.355D-02-0.126D-01-0.271D-01 0.412D-01 0.333D+00 0.668D+00
 Coeff:     -0.521D-05 0.670D-05 0.826D-04 0.229D-03 0.553D-03 0.699D-03
 Coeff:     -0.355D-02-0.126D-01-0.271D-01 0.412D-01 0.333D+00 0.668D+00
 Gap=     0.240 Goal=   None    Shift=    0.000
 RMSDP=2.19D-08 MaxDP=1.24D-06 DE=-4.27D-10 OVMax= 2.70D-06

 Cycle  13  Pass 1  IDiag  1:
 RMSU=  1.25D-08    CP:  9.65D-01  1.18D+00  7.96D-01  6.78D-01  8.29D-01
                    CP:  9.70D-01  1.09D+00  1.09D+00  1.16D+00  1.09D+00
                    CP:  1.01D+00  8.28D-01
 E= -1494.55027917912     Delta-E=       -0.000000000042 Rises=F Damp=F
 DIIS: error= 5.34D-08 at cycle  13 NSaved=  13.
 NSaved=13 IEnMin=13 EnMin= -1494.55027917912     IErMin=13 ErrMin= 5.34D-08
 ErrMax= 5.34D-08  0.00D+00 EMaxC= 1.00D-01 BMatC= 3.54D-12 BMatP= 5.51D-11
 IDIUse=1 WtCom= 1.00D+00 WtEn= 0.00D+00
 Coeff-Com:  0.233D-06-0.120D-05-0.143D-05 0.522D-05 0.375D-04 0.220D-03
 Coeff-Com:  0.518D-03-0.147D-03-0.981D-02-0.131D-01 0.366D-01 0.215D+00
 Coeff-Com:  0.771D+00
 Coeff:      0.233D-06-0.120D-05-0.143D-05 0.522D-05 0.375D-04 0.220D-03
 Coeff:      0.518D-03-0.147D-03-0.981D-02-0.131D-01 0.366D-01 0.215D+00
 Coeff:      0.771D+00
 Gap=     0.240 Goal=   None    Shift=    0.000
 RMSDP=6.49D-09 MaxDP=3.47D-07 DE=-4.23D-11 OVMax= 8.17D-07

 Error on total polarization charges =  0.04234
 SCF Done:  E(RM062X) =  -1494.55027918     A.U. after   13 cycles
            NFock= 13  Conv=0.65D-08     -V/T= 2.0098
 KE= 1.480039454054D+03 PE=-1.066163708708D+04 EE= 4.095362226005D+03
 SMD-CDS (non-electrostatic) energy       (kcal/mol) =      -8.88
 (included in total energy above)
 Leave Link  502 at Thu Feb 27 17:09:39 2025, MaxMem=  4294967296 cpu:            2655.7 elap:              84.8
 (Enter /ihome/crc/install/gaussian/c01/avx2/tar/g16/l508.exe)
 QCSCF skips out because SCF is already converged.
 Leave Link  508 at Thu Feb 27 17:09:39 2025, MaxMem=  4294967296 cpu:               0.2 elap:               0.0
 (Enter /ihome/crc/install/gaussian/c01/avx2/tar/g16/l601.exe)
 Copying SCF densities to generalized density rwf, IOpCl= 0 IROHF=0.

 **********************************************************************

            Population analysis using the SCF Density.

 **********************************************************************

 Alpha  occ. eigenvalues --  -25.26411 -19.65434 -19.62727 -19.59711 -14.78573
 Alpha  occ. eigenvalues --  -14.76691 -14.73460 -10.66316 -10.64621 -10.64325
 Alpha  occ. eigenvalues --  -10.64094 -10.60952 -10.59431 -10.58943 -10.58404
 Alpha  occ. eigenvalues --  -10.58097 -10.57960 -10.57905 -10.57664 -10.56908
 Alpha  occ. eigenvalues --  -10.56589 -10.56430 -10.56128 -10.55949 -10.55636
 Alpha  occ. eigenvalues --  -10.55601 -10.55455 -10.55366 -10.55195 -10.55035
 Alpha  occ. eigenvalues --  -10.55022 -10.54987 -10.54984  -1.35425  -1.20700
 Alpha  occ. eigenvalues --   -1.14997  -1.13707  -1.08396  -1.02490  -1.01654
 Alpha  occ. eigenvalues --   -0.97459  -0.94583  -0.91370  -0.88721  -0.86737
 Alpha  occ. eigenvalues --   -0.86549  -0.86051  -0.83422  -0.82773  -0.81148
 Alpha  occ. eigenvalues --   -0.79744  -0.78023  -0.76809  -0.74575  -0.72617
 Alpha  occ. eigenvalues --   -0.71043  -0.70226  -0.68184  -0.67992  -0.67279
 Alpha  occ. eigenvalues --   -0.66143  -0.65789  -0.64187  -0.62012  -0.60276
 Alpha  occ. eigenvalues --   -0.59380  -0.58311  -0.57941  -0.57508  -0.56902
 Alpha  occ. eigenvalues --   -0.56564  -0.56127  -0.55938  -0.54567  -0.54225
 Alpha  occ. eigenvalues --   -0.53351  -0.52859  -0.52168  -0.51792  -0.51724
 Alpha  occ. eigenvalues --   -0.51096  -0.50318  -0.49840  -0.48953  -0.48768
 Alpha  occ. eigenvalues --   -0.48384  -0.48169  -0.47991  -0.46621  -0.46276
 Alpha  occ. eigenvalues --   -0.46109  -0.45958  -0.45614  -0.45161  -0.44497
 Alpha  occ. eigenvalues --   -0.43867  -0.43753  -0.43141  -0.42742  -0.42153
 Alpha  occ. eigenvalues --   -0.41523  -0.41284  -0.40161  -0.39808  -0.39455
 Alpha  occ. eigenvalues --   -0.39064  -0.36132  -0.35998  -0.34163  -0.33318
 Alpha  occ. eigenvalues --   -0.33124  -0.32960  -0.32230  -0.30974  -0.30468
 Alpha  occ. eigenvalues --   -0.30430  -0.28603  -0.25297
 Alpha virt. eigenvalues --   -0.01328   0.00667   0.01567   0.02191   0.02985
 Alpha virt. eigenvalues --    0.03832   0.05069   0.09591   0.09997   0.10602
 Alpha virt. eigenvalues --    0.11437   0.12011   0.12187   0.12546   0.13512
 Alpha virt. eigenvalues --    0.14679   0.15125   0.15456   0.15737   0.16431
 Alpha virt. eigenvalues --    0.16752   0.16924   0.17318   0.17557   0.18187
 Alpha virt. eigenvalues --    0.18374   0.18841   0.19108   0.19424   0.19985
 Alpha virt. eigenvalues --    0.20229   0.20754   0.20983   0.21416   0.21569
 Alpha virt. eigenvalues --    0.22177   0.23084   0.23439   0.23608   0.24253
 Alpha virt. eigenvalues --    0.24715   0.25335   0.25921   0.27457   0.27643
 Alpha virt. eigenvalues --    0.28613   0.29407   0.29717   0.30425   0.30794
 Alpha virt. eigenvalues --    0.31382   0.31936   0.32809   0.33210   0.33501
 Alpha virt. eigenvalues --    0.34093   0.34625   0.35770   0.36140   0.36216
 Alpha virt. eigenvalues --    0.36743   0.37251   0.38543   0.39155   0.39511
 Alpha virt. eigenvalues --    0.40335   0.40785   0.41418   0.42362   0.43950
 Alpha virt. eigenvalues --    0.44466   0.44542   0.45489   0.46752   0.46968
 Alpha virt. eigenvalues --    0.47269   0.47790   0.48117   0.48696   0.48915
 Alpha virt. eigenvalues --    0.49487   0.49703   0.50615   0.51046   0.51135
 Alpha virt. eigenvalues --    0.51880   0.52324   0.52619   0.52935   0.53159
 Alpha virt. eigenvalues --    0.53459   0.54192   0.54302   0.54525   0.54951
 Alpha virt. eigenvalues --    0.55954   0.56220   0.57408   0.57463   0.58026
 Alpha virt. eigenvalues --    0.59201   0.59823   0.60321   0.60529   0.61006
 Alpha virt. eigenvalues --    0.62327   0.62502   0.63157   0.63185   0.63767
 Alpha virt. eigenvalues --    0.64108   0.64580   0.65080   0.65292   0.66018
 Alpha virt. eigenvalues --    0.66459   0.67034   0.67260   0.67765   0.67960
 Alpha virt. eigenvalues --    0.68792   0.69070   0.69518   0.69973   0.70264
 Alpha virt. eigenvalues --    0.70510   0.70620   0.70863   0.71003   0.71426
 Alpha virt. eigenvalues --    0.71881   0.72064   0.72295   0.72603   0.72912
 Alpha virt. eigenvalues --    0.73216   0.73380   0.73503   0.73723   0.74155
 Alpha virt. eigenvalues --    0.74562   0.74893   0.75286   0.75496   0.75603
 Alpha virt. eigenvalues --    0.75953   0.76539   0.76659   0.76868   0.77290
 Alpha virt. eigenvalues --    0.78130   0.78291   0.79079   0.79980   0.80238
 Alpha virt. eigenvalues --    0.80954   0.81047   0.81461   0.81902   0.82664
 Alpha virt. eigenvalues --    0.83137   0.83460   0.84032   0.84839   0.85097
 Alpha virt. eigenvalues --    0.85416   0.85783   0.86320   0.87104   0.87463
 Alpha virt. eigenvalues --    0.88031   0.88782   0.89635   0.90327   0.91434
 Alpha virt. eigenvalues --    0.92520   0.93509   0.94300   0.95896   0.96461
 Alpha virt. eigenvalues --    0.97531   0.99031   0.99502   1.00161   1.00438
 Alpha virt. eigenvalues --    1.02933   1.03614   1.05446   1.06174   1.07399
 Alpha virt. eigenvalues --    1.08176   1.08910   1.11848   1.12243   1.13445
 Alpha virt. eigenvalues --    1.14842   1.16032   1.16343   1.16919   1.18467
 Alpha virt. eigenvalues --    1.19295   1.20212   1.21049   1.21528   1.22357
 Alpha virt. eigenvalues --    1.23688   1.24257   1.25324   1.26652   1.26898
 Alpha virt. eigenvalues --    1.27840   1.27978   1.28211   1.29178   1.30295
 Alpha virt. eigenvalues --    1.30891   1.31590   1.32202   1.33368   1.33881
 Alpha virt. eigenvalues --    1.33963   1.34645   1.34748   1.35606   1.36063
 Alpha virt. eigenvalues --    1.36614   1.37091   1.37612   1.38232   1.38996
 Alpha virt. eigenvalues --    1.39585   1.39938   1.41675   1.42389   1.42756
 Alpha virt. eigenvalues --    1.44224   1.45273   1.47107   1.47951   1.50371
 Alpha virt. eigenvalues --    1.52369   1.52850   1.53993   1.54517   1.55647
 Alpha virt. eigenvalues --    1.56508   1.57642   1.58149   1.58692   1.59235
 Alpha virt. eigenvalues --    1.59587   1.60805   1.61063   1.63006   1.63568
 Alpha virt. eigenvalues --    1.65362   1.65726   1.66530   1.67454   1.68719
 Alpha virt. eigenvalues --    1.69224   1.70757   1.71666   1.72283   1.72817
 Alpha virt. eigenvalues --    1.73069   1.73863   1.74242   1.75573   1.76462
 Alpha virt. eigenvalues --    1.76687   1.76859   1.77122   1.77515   1.77997
 Alpha virt. eigenvalues --    1.78555   1.79040   1.79273   1.79949   1.80188
 Alpha virt. eigenvalues --    1.80656   1.80932   1.81276   1.81552   1.81755
 Alpha virt. eigenvalues --    1.82085   1.82372   1.82841   1.83175   1.83465
 Alpha virt. eigenvalues --    1.83883   1.84281   1.84574   1.84971   1.85474
 Alpha virt. eigenvalues --    1.85983   1.86212   1.86984   1.87122   1.87324
 Alpha virt. eigenvalues --    1.88041   1.88591   1.89452   1.89966   1.90007
 Alpha virt. eigenvalues --    1.92339   1.92454   1.93004   1.93265   1.93546
 Alpha virt. eigenvalues --    1.95172   1.95421   1.95643   1.95809   1.97185
 Alpha virt. eigenvalues --    1.97702   1.98132   1.98598   1.99316   1.99703
 Alpha virt. eigenvalues --    2.00203   2.00266   2.00983   2.02589   2.03009
 Alpha virt. eigenvalues --    2.03383   2.04081   2.04832   2.05329   2.05970
 Alpha virt. eigenvalues --    2.06601   2.06948   2.07486   2.09448   2.09630
 Alpha virt. eigenvalues --    2.10585   2.11588   2.12989   2.13582   2.14114
 Alpha virt. eigenvalues --    2.14295   2.14949   2.15128   2.16270   2.17405
 Alpha virt. eigenvalues --    2.18130   2.18773   2.19171   2.19805   2.20276
 Alpha virt. eigenvalues --    2.21577   2.22146   2.22841   2.23463   2.24477
 Alpha virt. eigenvalues --    2.26155   2.26406   2.27288   2.28169   2.28924
 Alpha virt. eigenvalues --    2.30006   2.30411   2.31599   2.32177   2.32682
 Alpha virt. eigenvalues --    2.33032   2.33808   2.34572   2.35168   2.35775
 Alpha virt. eigenvalues --    2.36244   2.37108   2.37477   2.38639   2.38811
 Alpha virt. eigenvalues --    2.40215   2.40473   2.42121   2.42335   2.44993
 Alpha virt. eigenvalues --    2.45520   2.46065   2.47365   2.49402   2.49769
 Alpha virt. eigenvalues --    2.50185   2.52297   2.53265   2.54020   2.55430
[...]
 6,-0.00000158,-0.00000490,0.00000348,-0.00002595,-0.00001158,-0.000005
 23,0.00000015,0.00001041,-0.00001973,0.00000937,0.00000195,0.01037816,
 0.00144079,-0.00060561,-0.00136198,-0.02792906,0.01006934,-0.12252004,
 0.02174483,0.07148918,0.00010968,-0.00165390,-0.00192250,0.00243700,0.
 00089579,0.00126338,-0.08047198,-0.02383465,0.01935836,-0.00089108,-0.
 00340428,-0.00464957,0.00197885,0.00139536,0.00236072,-0.02566160,0.00
 392175,0.03795261,-0.00631516,-0.00049638,0.01003667,0.01045285,0.0234
 1923,-0.00638557,-0.00337889,-0.02440809,0.00778348,-0.00010426,0.0007
 0882,0.00120201,0.21494767,0.00015659,0.00009344,-0.00002280,-0.000240
 17,-0.00015778,0.00007367,0.00002467,0.00000623,-0.00002965,0.00000181
 ,0.00002525,-0.00001459,-0.00005804,-0.00007792,-0.00001851,0.00001771
 ,0.00005059,0.00001478,0.00009235,0.00038140,-0.00028271,-0.00001891,0
 .00001990,-0.00003045,0.00000379,0.00000592,0.00000720,-0.00000234,0.0
 0000569,0.00000693,0.00001167,0.00000576,-0.00002626,-0.00010072,0.000
 02992,0.00015140,0.00000312,-0.00003766,-0.00022166,0.00002002,0.00036
 239,0.00001656,-0.00004870,-0.00059547,0.00018733,0.00080418,0.0009808
 9,-0.00024222,0.00003526,-0.00004405,-0.00059860,-0.00006646,0.0004097
 8,-0.00025402,-0.00002676,-0.00002439,0.00003236,-0.00002802,0.0000238
 8,-0.00000087,0.00000387,0.00001094,-0.00002269,-0.00001432,0.00002288
 ,-0.00000408,0.00001627,0.00000597,-0.00002184,0.00000052,-0.00000360,
 -0.00000910,-0.00000098,-0.00000333,-0.00000652,-0.00000487,-0.0000045
 6,-0.00001023,0.00003901,-0.00003487,0.00000184,0.00000464,-0.00000325
 ,-0.00000521,0.00000221,0.00000974,0.00000156,0.00002621,0.00000924,-0
 .00001367,0.00000906,0.00000265,0.00000034,-0.00000573,-0.00000364,0.0
 0000161,0.00001239,0.00002035,-0.00000980,-0.00001461,-0.00003727,0.00
 002335,0.00000096,0.00000213,-0.00001166,-0.00000192,-0.00000502,0.000
 00203,-0.00001899,-0.00001181,0.00000957,-0.00000596,-0.00000362,0.000
 00599,-0.00001001,0.00002537,-0.00002940,0.00002135,-0.00001865,-0.000
 00995,0.00000906,-0.00002084,0.00000623,-0.00001650,-0.00001389,0.0000
 0433,-0.00000018,0.00001677,0.00000347,0.01161652,0.00160894,-0.016891
 59,-0.01224020,-0.04563516,0.01157618,-0.00255496,-0.09622261,0.003920
 52,-0.00209839,-0.00068129,-0.00233865,-0.00005559,0.00005222,0.000194
 92,-0.00458515,-0.21429254,0.02053913,-0.00301366,-0.00244876,-0.00597
 255,0.00013952,0.00242780,0.00003693,0.00739850,0.00185538,-0.01077439
 ,-0.02185608,0.00565207,0.03212586,0.00004487,-0.03499746,0.01343891,-
 0.00247896,-0.00402326,0.00517967,0.00162896,0.00412163,0.00510208,0.0
 2731169,0.38161293,0.00080902,-0.00009187,-0.00092938,-0.00079545,-0.0
 0035235,0.00092601,0.00002408,0.00018204,-0.00001107,0.00002084,0.0001
 3245,-0.00013040,-0.00088594,-0.00021970,0.00052769,0.00045573,-0.0000
 1640,-0.00016452,0.00032154,-0.00004388,-0.00124228,0.00003197,0.00000
 760,-0.00000120,0.00000773,-0.00000902,-0.00001583,0.00000779,-0.00000
 202,-0.00002323,0.00000137,0.00002083,0.00000033,-0.00018163,0.0004446
 6,0.00096468,0.00000865,-0.00047188,-0.00009219,-0.00006303,0.00012123
 ,-0.00000785,0.00002078,-0.00045242,-0.00023343,-0.00019880,0.00034796
 ,0.00134508,-0.00049166,-0.00112989,-0.00135873,0.00001697,-0.00001562
 ,0.00001708,-0.00003480,-0.00002914,-0.00002325,-0.00006202,0.00002710
 ,0.00001237,-0.00000598,-0.00000100,-0.00002061,-0.00001237,-0.0000223
 6,-0.00000466,0.00000546,-0.00000878,-0.00001376,0.00000643,0.00000875
 ,-0.00000400,0.00000393,0.00000620,-0.00000333,0.00000628,0.00001412,0
 .,0.00006294,0.00002455,0.00006436,0.00001886,-0.00002353,-0.00000482,
 0.00000280,-0.00000235,0.00000388,-0.00002379,0.00005474,0.00003068,0.
 00000780,-0.00002030,-0.00000861,-0.00000133,-0.00000430,-0.00000757,0
 .00000683,-0.00003537,-0.00002072,-0.00000588,0.00005800,0.00003101,-0
 .00000660,-0.00000328,-0.00000026,0.00000440,-0.00000801,-0.00000612,-
 0.00002007,0.00002987,-0.00000651,0.00001176,-0.00000894,-0.00000259,-
 0.00002507,-0.00002439,-0.00005975,0.00000412,-0.00004595,-0.00006948,
 -0.00000520,-0.00003573,0.00001977,-0.00000473,-0.00003984,0.00001831,
 -0.00000748,-0.00002475,0.00002844,0.03147055,-0.00395406,-0.04443677,
 -0.00128335,-0.01825037,0.01110950,0.07355022,-0.02477325,-0.16954891,
 -0.00519284,-0.00543597,-0.00431792,0.00001734,0.00146842,0.00262801,0
 .01421672,0.05183841,-0.09669497,-0.00213068,-0.00247234,-0.00235586,0
 .00139566,0.00013484,0.00162613,0.01377609,-0.00324020,-0.00446071,0.0
 1229773,0.00121354,-0.01634243,0.00212363,0.01917649,-0.00355271,0.006
 04236,0.03565747,-0.00985544,0.00146670,0.00502773,0.00357292,-0.14728
 158,-0.05509356,0.33209659,-0.00006377,0.00002251,-0.00001050,0.000138
 46,-0.00001272,-0.00000813,-0.00001225,0.00000168,-0.00000097,-0.00000
 275,0.00000104,-0.00000271,0.00004546,-0.00000761,-0.00000542,-0.00003
 200,0.00001823,-0.00000366,-0.00012649,-0.00010945,0.00012635,0.000000
 27,0.00000075,0.00000019,-0.00000085,0.00000222,-0.00000294,0.00000022
 ,0.00000037,-0.00000004,-0.00000186,-0.00000015,0.00000017,0.00024349,
 -0.00171780,-0.00261887,-0.03366004,0.00091264,0.00452678,0.00212869,0
 .00235938,0.00200325,0.00558228,-0.00102227,0.00065558,-0.00019132,-0.
 00025412,0.00009116,0.00812004,-0.00109757,0.00117304,0.00033499,0.000
 18531,0.00011764,-0.00376302,0.00017222,-0.00009314,0.00020257,-0.0004
 7493,0.00048447,0.00000096,0.00017907,0.00004114,-0.00023818,0.0001021
 9,-0.00001973,0.00002563,-0.00003196,0.00008310,-0.00001764,-0.0000141
 2,0.00002181,-0.00000563,-0.00000682,-0.00000943,0.00000615,-0.0000016
 5,-0.00003649,0.00014799,0.00036451,-0.00042982,0.00022254,-0.00022764
 ,-0.00014611,0.00001984,0.00021282,0.00009289,0.00017279,-0.00006951,-
 0.00012746,-0.00004323,0.00011289,-0.00000909,-0.00002028,-0.00001514,
 0.00005326,-0.00003735,0.00011034,-0.00006368,-0.00000592,-0.00001656,
 0.00003511,-0.00002731,-0.00002531,-0.00002916,-0.00000305,-0.00001191
 ,0.00000268,-0.00000509,-0.00000622,0.00001644,0.00000456,-0.00000562,
 0.00000747,-0.00000948,-0.00003557,-0.00008603,-0.00217975,0.00026985,
 -0.00030881,-0.00020155,0.00045636,0.00013959,-0.00030779,-0.00049485,
 -0.00016409,-0.00023128,0.00000393,-0.00003042,-0.00005568,0.00013448,
 0.00008277,-0.00003577,0.00006207,-0.00010315,-0.00004235,-0.00002042,
 0.00000418,-0.00001846,-0.00006394,-0.00002455,0.00005418,0.00006376,-
 0.00000761,0.00002943,0.00004144,-0.00003233,0.00000900,-0.00010544,-0
 .00002021,0.00000146,-0.00006874,0.00002740,-0.00000023,-0.00000555,0.
 00000058,0.00000588,0.00000164,-0.00000472,-0.00000275,0.00000148,0.00
 000166,0.00000179,-0.00000675,0.00000040,-0.00078336,0.00040256,-0.000
 22914,-0.00001068,0.00002072,0.00004815,0.02446299,-0.00023642,0.00001
 132,0.00007769,0.00042311,0.00003419,-0.00015175,-0.00004909,-0.000014
 50,0.00002458,-0.00000016,-0.00002215,0.00002508,0.00012529,0.00002853
 ,-0.00008073,-0.00007051,0.00001110,0.00002035,-0.00017778,-0.00066962
 ,0.00064848,0.,0.00000255,0.00000142,0.00000267,-0.00000418,0.00000039
 ,-0.00000654,-0.00000422,0.00000584,-0.00000419,-0.00000063,0.00000377
 ,0.00105248,-0.01289616,-0.02092227,0.00062735,-0.20750462,-0.14743389
 ,-0.00026656,0.00901336,0.00713402,-0.00046647,0.00020106,0.00210412,-
 0.00011787,-0.00005875,0.00134839,-0.00102278,-0.00543146,0.00214952,0
 .00003538,0.00047496,0.00036133,0.00033263,0.00032122,-0.00095640,0.00
 004491,-0.00002193,0.00014210,-0.00004831,-0.00005437,0.00016575,0.000
 09974,-0.00004999,-0.00011594,-0.00008896,0.00006966,-0.00006569,0.000
 00817,-0.00000709,-0.00000277,-0.00000426,0.00000120,-0.00000491,-0.00
 000872,-0.00000429,0.00000206,0.00021759,-0.00014679,0.00013073,-0.000
 06367,0.00013365,-0.00003339,0.00001754,0.00003999,-0.00001710,-0.0000
 5062,-0.00006311,-0.00009905,-0.00006188,0.00001305,-0.00000478,-0.000
 03066,0.00001283,0.00001096,0.00000122,-0.00005268,0.00001233,0.000012
 37,-0.00000214,-0.00000475,0.00002859,0.00000382,0.00005916,0.00001423
 ,-0.00000838,-0.00000282,0.00001238,-0.00000293,0.00000814,0.00000911,
 0.00000131,0.00000253,-0.00013644,0.00004855,0.00015244,0.00020290,0.0
 0063479,0.00016377,0.00022959,0.00013613,-0.00006329,-0.00020075,0.000
 24870,-0.00014903,0.00001561,-0.00002746,-0.00008619,-0.00004919,-0.00
 003585,-0.00000433,-0.00010452,-0.00001081,0.00001686,0.00004321,0.000
 04793,0.00002747,0.00006898,0.00001401,-0.00000605,-0.00001908,0.00000
 859,0.00001230,0.00001690,-0.00002356,-0.00001474,0.00001557,0.0000155
 8,-0.00001333,-0.00000143,0.00000592,-0.00000047,-0.00000959,-0.000002
 16,-0.00000985,-0.00000251,-0.00000571,-0.00000245,-0.00000237,0.00000
 374,0.00000035,-0.00000333,-0.00000480,-0.00000921,0.00015292,0.000100
 82,-0.00010393,0.00000925,-0.00000485,-0.00006144,-0.00042018,0.214477
 33,0.00001349,-0.00000325,-0.00001084,-0.00005391,0.00000456,0.0000234
 1,0.00000640,0.00000604,-0.00000183,0.00000087,0.00000291,-0.00000302,
 -0.00000583,-0.00000993,0.00000915,0.00000309,0.00000347,-0.00000353,0
 .00002011,0.00011220,-0.00015009,-0.00000045,0.00000041,-0.00000105,-0
 .00000025,0.00000059,0.00000097,0.00000124,0.00000088,-0.00000068,0.00
 000016,0.00000002,-0.00000071,-0.00006394,0.00795875,0.00864694,0.0039
 5174,-0.14900374,-0.19801787,-0.00008267,-0.02109006,-0.01331682,0.001
 03601,0.00254727,-0.00387659,0.00010509,0.00101494,-0.00104825,0.00090
 872,0.00300670,0.00103124,-0.00002355,-0.00105406,-0.00063014,-0.00044
 002,0.00066161,0.00019537,0.00016649,-0.00000204,0.00015816,-0.0000577
 9,-0.00004982,-0.00000815,0.00003284,0.00000211,-0.00007683,-0.0000484
 0,0.00002901,-0.00000677,0.00000469,0.00000347,0.00001141,0.00000054,0
 .00000305,0.00000143,-0.00000401,-0.00000783,0.00000108,-0.00000914,-0
 .00002065,0.00024185,0.00014631,0.00009449,0.00001760,0.00003178,0.000
 05178,0.00002261,-0.00007363,-0.00000210,-0.00007624,-0.00001947,-0.00
 000073,-0.00000818,-0.00000652,-0.00002064,-0.00004282,-0.00002485,-0.
 00001179,-0.00001801,0.00000192,-0.00000573,0.00000267,-0.00002202,-0.
 00000427,-0.00001210,-0.00000356,-0.00000117,0.00000617,0.00000496,0.0
 0000025,-0.00000127,-0.00000542,-0.00000301,-0.00000101,0.00002818,0.0
 0001205,-0.00004157,-0.00040438,-0.00113838,0.00142758,-0.00013580,0.0
 0037792,-0.00020519,0.00016216,0.00025988,-0.00019105,-0.00004142,0.00
 002584,0.00021253,0.00002928,0.00000805,-0.00001634,-0.00002374,0.0000
 6910,-0.00007949,-0.00000474,-0.00001995,-0.00000105,-0.00001689,-0.00
 001414,-0.00000170,0.00000655,-0.00001423,-0.00001102,0.00002294,0.000
 02949,0.00003431,-0.00003216,-0.00002707,0.00005987,-0.00000522,-0.000
 03201,0.00001738,-0.00000060,0.00000258,0.00000179,-0.00000297,-0.0000
 0365,-0.00000350,-0.00000113,-0.00000045,-0.00000180,0.00000037,-0.000
 00387,-0.00000275,-0.00004813,-0.00008696,0.00026648,-0.00002621,-0.00
 003395,0.00001679,-0.00502072,0.15653062,0.20521028,0.00124407,0.00031
 224,-0.00159735,0.00322844,-0.03461992,0.02738034,-0.00308664,0.000781
 56,0.00112526,0.00011009,-0.00007985,0.00044204,-0.00141599,0.00004797
 ,0.00039375,0.00059541,0.00008330,-0.00023591,-0.05894581,0.04423653,-
 0.02637577,-0.00000770,0.00015741,-0.00019702,-0.00004498,-0.00005671,
 0.00014997,-0.00026871,0.00000756,0.00000399,-0.00015793,0.00007250,0.
 00002258,0.00107325,-0.00041121,0.00056349,0.00151949,-0.00004925,-0.0
 0039063,-0.00026910,0.00005848,0.00024512,0.00142620,-0.00022870,0.000
 65549,0.00044260,-0.00180062,0.00000853,-0.01824436,0.00012001,0.00184
 803,0.00000303,-0.00016071,0.00003866,-0.00133412,0.00001921,-0.000209
 07,-0.00007963,0.00000022,0.00007039,-0.00018562,0.00006388,0.00010002
 ,-0.00025842,0.00014274,0.00020118,0.00004076,0.00000904,-0.00005401,0
 .00000113,-0.00000315,-0.00000041,-0.00002472,0.00000532,0.00001778,-0
 .00000484,0.00001195,-0.00004466,0.00275223,-0.00152195,-0.00276446,0.
 00001373,-0.00006865,0.00003943,-0.00001597,0.00000482,-0.00000523,-0.
 00001786,0.00010361,0.00012715,0.00001506,-0.00002148,-0.00001275,0.00
 000019,-0.00001402,-0.00001170,0.00000463,-0.00006492,-0.00007006,-0.0
 0004522,0.00007280,-0.00010257,0.00001146,-0.00000788,0.00000399,0.000
 00282,-0.00000438,-0.00000359,-0.00000974,0.00000941,0.00000141,0.0000
 0670,-0.00001282,-0.00000320,-0.00134268,0.00108871,0.00221171,-0.0001
 6779,0.00003358,-0.00002136,-0.00000087,0.00002409,0.00001851,-0.00000
 569,-0.00004426,-0.00003871,0.00000232,0.00000091,0.00000409,0.0013431
 0,-0.00031594,-0.00054831,0.00012729,-0.00012205,-0.00000563,-0.000651
 83,-0.00010727,-0.00005473,-0.00136054,-0.00090454,-0.00225069,-0.0002
 8655,0.00052244,0.00021349,0.00001650,0.00017068,-0.00004911,-0.000026
 52,-0.00000865,0.00002600,-0.00004638,0.00004353,0.00004878,-0.0000285
 0,-0.00004041,-0.00006526,0.00002056,0.00000522,-0.00001163,-0.0000079
 0,-0.00002586,-0.00000214,-0.00000055,-0.00001328,0.00001998,-0.000986
 60,0.00002144,-0.00006903,-0.00005256,0.00008966,0.00044705,0.00017549
 ,-0.00009484,0.00002361,0.07520576,0.02117372,-0.00365864,-0.00527724,
 -0.04749510,-0.00409804,0.01724151,0.00478517,0.00381428,-0.00175825,0
 .00025512,0.00190473,-0.00128131,-0.00931990,-0.00473201,0.00673669,0.
 00681490,-0.00003004,-0.00142378,0.03409233,-0.16617244,0.09222843,0.0
 0014905,0.00007420,-0.00035873,0.00010096,-0.00040773,0.00063901,0.000
 31970,0.00000194,-0.00023513,0.00064550,0.00009046,-0.00028373,0.00100
 825,-0.01345268,-0.01197442,0.00105598,0.00554696,-0.00115222,-0.00031
 896,-0.00071190,0.00309359,0.00027622,-0.00109804,-0.00476052,0.000460
 23,0.01526786,0.01938872,-0.00453245,0.01350472,-0.02239005,0.00028223
 ,0.00139593,-0.00052632,-0.00088826,-0.00009580,-0.00099353,0.00087978
 ,-0.00042388,0.00014216,-0.00018140,-0.00033126,0.00048515,0.00034595,
 -0.00057220,-0.00007355,-0.00051780,-0.00004259,0.00054159,-0.00002603
 ,0.00001010,0.00020450,0.00002084,0.00004695,0.00006503,0.00008969,0.0
 0005362,0.00022780,-0.00119927,0.00051169,-0.00103394,0.00013683,0.000
 05163,0.00012141,-0.00006829,-0.00006101,-0.00012585,-0.00042443,-0.00
 027716,0.00027771,-0.00009173,0.00000054,-0.00001725,0.00004151,0.0000
 1226,-0.00001848,-0.00002359,-0.00015927,0.00006234,0.00026777,0.00062
 904,-0.00033557,0.00000534,0.00008308,0.00003475,-0.00001048,0.0000282
 6,-0.00000959,0.00002080,0.00002659,-0.00003280,0.00001193,0.00002461,
 -0.00002206,0.00070414,-0.00059490,0.00062628,-0.00001522,0.00062348,0
 .00045158,0.00003931,0.00033095,-0.00024562,0.00006049,0.00033484,-0.0
 0027056,0.00003389,0.00017756,-0.00021223,0.00065602,0.00367440,-0.001
 18599,-0.00100688,-0.00104716,0.00211839,0.00034740,-0.00076715,0.0002
 0313,-0.00121777,0.00076840,-0.00157283,0.00119683,-0.00140121,-0.0006
 9443,0.00071456,0.00074078,-0.00022527,-0.00005415,0.00011095,0.000119
 96,0.00070814,-0.00012587,-0.00056489,0.00011857,0.00013503,0.00022852
 ,-0.00009067,-0.00033153,-0.00028397,-0.00002488,-0.00001455,0.0000614
 3,-0.00008526,-0.00024694,-0.00018539,-0.00251015,-0.00651545,-0.00647
 206,-0.00033304,-0.00045049,0.00042725,0.00013405,0.00101927,-0.000154
 56,-0.00751751,0.15682486,-0.01745899,-0.00184266,0.00054981,0.0359497
 3,0.01556473,-0.01946401,-0.00023964,0.00105579,0.00419730,0.00022690,
 0.00007416,0.00168539,0.00720810,0.00280070,-0.00664583,-0.00510868,0.
 00021260,0.00143718,-0.01949490,0.09221664,-0.09532099,-0.00006835,0.0
 0080768,-0.00049359,-0.00019904,-0.00045689,0.00041150,-0.00038264,-0.
 00004819,0.00016713,-0.00006814,-0.00015169,0.00005713,-0.00067076,-0.
 00222225,0.01240834,-0.00063781,-0.00438617,-0.00090148,0.00020204,0.0
 0048554,-0.00190116,-0.00014045,0.00028059,0.00139201,-0.00044670,-0.0
 0061734,-0.01018222,0.00405037,-0.02081963,-0.00961125,-0.00007770,-0.
 00053012,0.00025168,-0.00004443,-0.00136738,0.00048379,0.00048230,0.00
 040696,-0.00086973,0.00020871,-0.00004569,0.00036265,0.00000449,0.0007
 8202,-0.00048882,-0.00021203,0.00021825,-0.00013482,-0.00001761,-0.000
 02075,-0.00008592,-0.00005663,-0.00001975,0.00000758,-0.00007817,-0.00
 010131,-0.00013164,0.00104140,-0.00227632,-0.00238559,-0.00000952,-0.0
 0019621,0.00005637,-0.00004513,0.00006144,-0.00004544,0.00015979,0.000
 26923,-0.00021527,0.00003276,0.00001383,0.00000585,-0.00001632,-0.0000
 2972,0.00001248,0.00003704,0.00013730,-0.00003404,-0.00014932,-0.00038
 887,0.00035540,-0.00006123,-0.00000943,-0.00005253,-0.00001257,0.00000
 108,0.00000336,-0.00004453,-0.00000278,-0.00000238,-0.00002203,-0.0000
 0587,0.00001339,-0.00088919,0.00095346,0.00089126,0.00001481,-0.000378
 41,-0.00028347,-0.00002156,-0.00019751,0.00015133,-0.00003677,-0.00019
 310,0.00016313,-0.00002018,-0.00010321,0.00012619,0.00003437,-0.000498
 64,-0.00115261,0.00092916,0.00008038,-0.00149015,-0.00060891,-0.000914
 51,-0.00085251,-0.00247271,-0.00123126,-0.00189605,0.00030121,-0.00038
 421,-0.00057529,-0.00045495,0.00009084,-0.00015658,-0.00007368,-0.0001
 1960,0.00008977,-0.00037471,0.00014886,0.00029989,0.00023119,0.0000353
 4,0.00026899,0.00005987,0.00027012,0.00015837,0.00007940,-0.00006820,-
 0.00000727,0.00002472,0.00012028,0.00017902,0.00086984,0.00270019,0.00
 314996,0.00001279,0.00033642,0.00099223,-0.00018814,-0.00092199,0.0002
 5121,-0.00125685,-0.07957479,0.12480097\\-0.00000306,0.00000999,-0.000
 00264,0.00000491,-0.00001054,-0.00000774,-0.00000024,-0.00000468,-0.00
 000091,-0.00000049,-0.00000151,0.00000101,-0.00000208,-0.00000577,0.00
 000167,0.00000370,-0.00000154,0.00000196,-0.00001341,0.00001920,-0.000
 01310,0.00000053,0.00000074,-0.00000102,-0.00000124,-0.00000137,-0.000
 00023,0.00000125,-0.00000076,0.00000035,0.00000065,-0.00000054,0.00000
 006,-0.00000606,-0.00000530,0.00000085,0.00000335,0.00000238,-0.000001
 22,0.00000101,-0.00000202,0.00000035,-0.00000328,0.00000292,0.00000479
 ,0.00000236,-0.00000589,-0.00001883,-0.00000489,0.00001047,0.00000179,
 -0.00000135,0.00000317,0.00000100,0.00000217,0.00000188,0.00000156,0.0
 0000645,0.00000089,-0.00000207,0.00000198,-0.00000193,0.00000373,0.000
 00178,0.00000042,-0.00000341,0.00000010,0.00000148,0.00000019,0.000001
 60,-0.00000195,0.00000018,0.00000220,-0.00000231,-0.00000063,0.0000017
 3,-0.00000164,-0.00000160,0.00000171,-0.00000297,0.00000302,-0.0000030
 1,0.00000285,0.00000137,0.00000427,-0.00000299,0.00000137,0.00000121,0
 .00000070,0.00000222,-0.00000093,-0.00000029,0.00000013,0.00000160,-0.
 00000145,0.00000197,0.00000110,-0.00000098,0.00000130,0.00000037,-0.00
 000047,0.00000147,0.00000073,0.00000214,0.00000391,0.00000162,-0.00000
 020,0.00000282,0.,0.00000088,0.00000178,0.00000047,0.00000072,0.000003
 19,0.00000045,-0.00000029,-0.00000219,0.00000059,0.00000083,0.00000028
 ,-0.00000131,0.00000036,-0.00000009,-0.00000128,0.00000047,0.00000164,
 0.00000022,0.00000092,0.00000101,0.00000564,-0.00000059,-0.00000092,-0
 .00000784,0.00000153,-0.00000411,-0.00000031,0.00000015,-0.00000530,-0
 .00000360,0.00000404,0.00000060,-0.00000147,0.00000094,-0.00000203,-0.
 00000365,0.00000377,-0.00000031,0.00000137,0.00000044,0.00000195,-0.00
 000203,0.00000101,-0.00000189,-0.00000192,0.00000109,0.00000026,-0.000
 00140,0.00000071,-0.00000133,-0.00000185,0.00000167,-0.00000115,-0.000
 00289,0.00000136,-0.00000122,0.00000064,0.00000090,0.00001210,-0.00000
 282,-0.00000024,0.00000244,0.00000089,-0.00000043,0.00000020,0.0000137
 4,-0.00002235,0.00000941\\\@
 The archive entry for this job was punched.


 THESE ARE THE TIMES THAT TRY MENS SOULS.
 THE SUMMER SOLDIER AND THE SUNSHINE PATRIOT WILL IN THIS CRISIS,
 SHRINK FROM THE SERVICE OF HIS COUNTRY.  BUT HE THAT STANDS NOW,
 DESERVES THE LOVE AND THANKS OF MAN AND WOMAN.
 TYRANNY, LIKE HELL, IS NOT EASILY CONQUERED,
 YET WE HAVE THIS CONSOLATION WITH US,
 THAT THE HARDER THE CONFLICT, THE MORE GLORIOUS THE TRIUMPH.
 WHAT WE OBTAIN TOO CHEAP, WE ESTEEM TOO LIGHTLY, 
 'TIS DEARNESS ONLY THAT GIVES EVERYTHING ITS VALUE.

                                              -- TOM PAINE
 Job cpu time:       0 days  8 hours 25 minutes  7.6 seconds.
 Elapsed time:       0 days  0 hours 15 minutes 50.7 seconds.
 File lengths (MBytes):  RWF=   2580 Int=      0 D2E=      0 Chk=     48 Scr=      1
 Normal termination of Gaussian 16 at Thu Feb 27 18:42:00 2025.
