 Entering Gaussian System, Link 0=g16
 Initial command:
 /ihome/crc/install/gaussian/c01/avx2/tar/g16/l1.exe "/scratch/slurm-18107937/Gau-38451.inp" -scrdir="/scratch/slurm-18107937/"
 Entering Link 1 = /ihome/crc/install/gaussian/c01/avx2/tar/g16/l1.exe PID=     38452.
  
 Copyright (c) 1988-2019, Gaussian, Inc.  All Rights Reserved.
  
 This is part of the Gaussian(R) 16 program.  It is based on
 the Gaussian(R) 09 system (copyright 2009, Gaussian, Inc.),
 the Gaussian(R) 03 system (copyright 2003, Gaussian, Inc.),
 the Gaussian(R) 98 system (copyright 1998, Gaussian, Inc.),
 the Gaussian(R) 94 system (copyright 1995, Gaussian, Inc.),
 the Gaussian 92(TM) system (copyright 1992, Gaussian, Inc.),
 the Gaussian 90(TM) system (copyright 1990, Gaussian, Inc.),
 the Gaussian 88(TM) system (copyright 1988, Gaussian, Inc.),
 the Gaussian 86(TM) system (copyright 1986, Carnegie Mellon
 University), and the Gaussian 82(TM) system (copyright 1983,
 Carnegie Mellon University). Gaussian is a federally registered
 trademark of Gaussian, Inc.
  
 This software contains proprietary and confidential information,
 including trade secrets, belonging to Gaussian, Inc.
  
 This software is provided under written license and may be
 used, copied, transmitted, or stored only in accord with that
 written license.
  
 The following legend is applicable only to US Government
 contracts under FAR:
  
                    RESTRICTED RIGHTS LEGEND
  
 Use, reproduction and disclosure by the US Government is
 subject to restrictions as set forth in subparagraphs (a)
 and (c) of the Commercial Computer Software - Restricted
 Rights clause in FAR 52.227-19.
  
 Gaussian, Inc.
 340 Quinnipiac St., Bldg. 40, Wallingford CT 06492
  
  
 ---------------------------------------------------------------
 Warning -- This program may not be used in any manner that
 competes with the business of Gaussian, Inc. or will provide
 assistance to any competitor of Gaussian, Inc.  The licensee
 of this program is prohibited from giving any competitor of
 Gaussian, Inc. access to this program.  By using this program,
 the user acknowledges that Gaussian, Inc. is engaged in the
 business of creating and licensing software in the field of
 computational chemistry and represents and warrants to the
 licensee that it is not a competitor of Gaussian, Inc. and that
 it will not use this program in any manner prohibited above.
 ---------------------------------------------------------------
  

 Cite this work as:
 Gaussian 16, Revision C.01,
 M. J. Frisch, G. W. Trucks, H. B. Schlegel, G. E. Scuseria, 
 M. A. Robb, J. R. Cheeseman, G. Scalmani, V. Barone, 
 G. A. Petersson, H. Nakatsuji, X. Li, M. Caricato, A. V. Marenich, 
 J. Bloino, B. G. Janesko, R. Gomperts, B. Mennucci, H. P. Hratchian, 
 J. V. Ortiz, A. F. Izmaylov, J. L. Sonnenberg, D. Williams-Young, 
 F. Ding, F. Lipparini, F. Egidi, J. Goings, B. Peng, A. Petrone, 
 T. Henderson, D. Ranasinghe, V. G. Zakrzewski, J. Gao, N. Rega, 
 G. Zheng, W. Liang, M. Hada, M. Ehara, K. Toyota, R. Fukuda, 
 J. Hasegawa, M. Ishida, T. Nakajima, Y. Honda, O. Kitao, H. Nakai, 
 T. Vreven, K. Throssell, J. A. Montgomery, Jr., J. E. Peralta, 
 F. Ogliaro, M. J. Bearpark, J. J. Heyd, E. N. Brothers, K. N. Kudin, 
 V. N. Staroverov, T. A. Keith, R. Kobayashi, J. Normand, 
 K. Raghavachari, A. P. Rendell, J. C. Burant, S. S. Iyengar, 
 J. Tomasi, M. Cossi, J. M. Millam, M. Klene, C. Adamo, R. Cammi, 
 J. W. Ochterski, R. L. Martin, K. Morokuma, O. Farkas, 
 J. B. Foresman, and D. J. Fox, Gaussian, Inc., Wallingford CT, 2019.
 
 ******************************************
 Gaussian 16:  ES64L-G16RevC.01  3-Jul-2019
                26-Feb-2025 
 ******************************************
 %nprocshared=24
 Will use up to   24 processors via shared memory.
 %mem=32GB
 ----------------------------------------------------------------------
 #p m062x genecp opt freq nosymm scrf=(smd,solvent=propylethanoate) emp
 iricaldispersion=gd3 scf=(xqc,maxcycles=128)
 ----------------------------------------------------------------------
 1/18=20,19=15,26=3,38=1/1,3;
 2/9=110,12=2,15=1,17=6,18=5,40=1/2;
 3/5=7,11=2,16=1,17=8,25=1,30=1,70=32201,71=1,72=169,74=-55,124=31/1,2,3;
 4//1;
 5/5=2,7=128,8=3,13=1,38=5,53=169/2,8;
 6/7=2,8=2,9=2,10=2,28=1/1;
 7/30=1/1,2,3,16;
 1/18=20,19=15,26=3/3(2);
 2/9=110,15=1/2;
 99//99;
 2/9=110,15=1/2;
 3/5=7,6=1,11=2,16=1,17=8,25=1,30=1,70=32205,71=1,72=169,74=-55,82=7,124=31/1,2,3;
 4/5=5,16=3,69=1/1;
 5/5=2,7=128,8=3,13=1,38=5,53=169/2,8;
 7/30=1/1,2,3,16;
 1/18=20,19=15,26=3/3(-5);
 2/9=110,15=1/2;
 6/7=2,8=2,9=2,10=2,19=2,28=1/1;
 99/9=1/99;
 Leave Link    1 at Wed Feb 26 18:42:39 2025, MaxMem=  4294967296 cpu:               0.8 elap:               0.1
 (Enter /ihome/crc/install/gaussian/c01/avx2/tar/g16/l101.exe)
 -------------------
 Title Card Required
 -------------------
 Symbolic Z-matrix:
 Charge =  0 Multiplicity = 1
 N                    -1.04788  -6.99437  -5.15316 
 C                    -0.12085  -7.48176  -4.32189 
 C                    -0.72296  -8.27771  -3.15212 
 C                    -2.22703  -8.05772  -3.35765 
 C                    -2.28809  -7.28902  -4.68913 
 O                    -3.32913  -6.97978  -5.24696 
 O                     1.10469  -7.30456  -4.46307 
 H                    -0.41435  -9.32954  -3.23999 
 H                    -0.32345  -7.89196  -2.20713 
 H                    -2.67928  -7.42602  -2.57032 
 H                    -2.81801  -8.97702  -3.4201 
 C                     0.89133  -3.88572  -5.0907 
 C                     0.87418  -2.58687  -5.53342 
 C                     1.08001  -2.33011  -6.90597 
 C                     1.15546  -3.388    -7.78943 
 C                     1.12347  -4.74412  -7.32225 
 N                     1.12742  -4.9076   -5.96941 
 H                     1.28561  -3.17915  -8.84352 
 C                     0.66859  -4.27934  -3.67621 
 C                    -0.54417  -4.00564  -2.99838 
 C                    -0.65201  -4.4035   -1.65549 
 C                     1.58078  -5.33755  -1.67452 
 C                     0.39134  -5.0586   -1.00872 
 H                    -1.58958  -4.20677  -1.13564 
 H                     0.27995  -5.36197   0.03448 
 H                     2.41262  -5.86088  -1.20974 
 C                     1.69342  -4.93758  -3.00134 
 C                    -1.69424  -3.34019  -3.671 
 C                    -2.30485  -2.22599  -3.05935 
 C                    -2.20594  -3.83059  -4.87524 
 C                    -3.38791  -1.6025   -3.66763 
 H                    -1.90928  -1.84615  -2.11466 
 C                    -3.29564  -3.20126  -5.47392 
 H                    -1.75648  -4.72673  -5.32991 
 C                    -3.89025  -2.09348  -4.87717 
 H                    -3.85117  -0.73007  -3.19354 
 H                    -3.69766  -3.61102  -6.40646 
 H                    -4.74239  -1.60197  -5.35008 
 F                     2.8244   -5.17354  -3.6688 
 C                     1.20795  -0.91025  -7.37621 
 H                     0.31223  -0.33803  -7.10399 
 H                     2.06549  -0.43386  -6.88138 
 H                     1.3537   -0.85616  -8.46106 
 C                     1.14326  -7.20654  -7.72352 
 C                     0.97995  -5.70293  -9.59333 
 C                    -0.1189   -7.90402  -8.20541 
 H                     1.23583  -7.33932  -6.63613 
 H                     2.02677  -7.68474  -8.17799 
 C                    -0.26317  -6.477    -10.02775 
 H                     0.87732  -4.66738  -9.929 
 H                     1.87173  -6.1444   -10.07644 
 H                    -0.98418  -7.43895  -7.71584 
 H                    -0.0844   -8.96546  -7.9371 
 H                    -1.16517  -5.97505  -9.61693 
 H                    -0.33053  -6.47474  -11.12404 
 N                     1.12882  -5.80355  -8.14082 
 O                    -0.21298  -7.81538  -9.61189 
 H                     0.71001  -1.76909  -4.81409 
 H                     1.49284  -5.93699  -5.47878 
 
 Add virtual bond connecting atoms H59        and O7         Dist= 3.30D+00.
 ITRead=  0  0  0  0  0  0  0  0  0  0  0  0  0  0  0  0  0  0  0  0
 ITRead=  0  0  0  0  0  0  0  0  0  0  0  0  0  0  0  0  0  0  0  0
 ITRead=  0  0  0  0  0  0  0  0  0  0  0  0  0  0  0  0  0  0  0
 MicOpt= -1 -1 -1 -1 -1 -1 -1 -1 -1 -1 -1 -1 -1 -1 -1 -1 -1 -1 -1 -1
 MicOpt= -1 -1 -1 -1 -1 -1 -1 -1 -1 -1 -1 -1 -1 -1 -1 -1 -1 -1 -1 -1
 MicOpt= -1 -1 -1 -1 -1 -1 -1 -1 -1 -1 -1 -1 -1 -1 -1 -1 -1 -1 -1
 NAtoms=     59 NQM=       59 NQMF=       0 NMMI=      0 NMMIF=      0
                NMic=       0 NMicF=      0.
                    Isotopes and Nuclear Properties:
 (Nuclear quadrupole moments (NQMom) in fm**2, nuclear magnetic moments (NMagM)
  in nuclear magnetons)

  Atom         1           2           3           4           5           6           7           8           9          10
 IAtWgt=          14          12          12          12          12          16          16           1           1           1
 AtmWgt=  14.0030740  12.0000000  12.0000000  12.0000000  12.0000000  15.9949146  15.9949146   1.0078250   1.0078250   1.0078250
 NucSpn=           2           0           0           0           0           0           0           1           1           1
 AtZEff=  -0.0000000  -0.0000000  -0.0000000  -0.0000000  -0.0000000  -0.0000000  -0.0000000  -0.0000000  -0.0000000  -0.0000000
 NQMom=    2.0440000   0.0000000   0.0000000   0.0000000   0.0000000   0.0000000   0.0000000   0.0000000   0.0000000   0.0000000
 NMagM=    0.4037610   0.0000000   0.0000000   0.0000000   0.0000000   0.0000000   0.0000000   2.7928460   2.7928460   2.7928460
 AtZNuc=   7.0000000   6.0000000   6.0000000   6.0000000   6.0000000   8.0000000   8.0000000   1.0000000   1.0000000   1.0000000

  Atom        11          12          13          14          15          16          17          18          19          20
 IAtWgt=           1          12          12          12          12          12          14           1          12          12
 AtmWgt=   1.0078250  12.0000000  12.0000000  12.0000000  12.0000000  12.0000000  14.0030740   1.0078250  12.0000000  12.0000000
 NucSpn=           1           0           0           0           0           0           2           1           0           0
 AtZEff=  -0.0000000  -0.0000000  -0.0000000  -0.0000000  -0.0000000  -0.0000000  -0.0000000  -0.0000000  -0.0000000  -0.0000000
 NQMom=    0.0000000   0.0000000   0.0000000   0.0000000   0.0000000   0.0000000   2.0440000   0.0000000   0.0000000   0.0000000
 NMagM=    2.7928460   0.0000000   0.0000000   0.0000000   0.0000000   0.0000000   0.4037610   2.7928460   0.0000000   0.0000000
 AtZNuc=   1.0000000   6.0000000   6.0000000   6.0000000   6.0000000   6.0000000   7.0000000   1.0000000   6.0000000   6.0000000

  Atom        21          22          23          24          25          26          27          28          29          30
 IAtWgt=          12          12          12           1           1           1          12          12          12          12
 AtmWgt=  12.0000000  12.0000000  12.0000000   1.0078250   1.0078250   1.0078250  12.0000000  12.0000000  12.0000000  12.0000000
 NucSpn=           0           0           0           1           1           1           0           0           0           0
 AtZEff=  -0.0000000  -0.0000000  -0.0000000  -0.0000000  -0.0000000  -0.0000000  -0.0000000  -0.0000000  -0.0000000  -0.0000000
 NQMom=    0.0000000   0.0000000   0.0000000   0.0000000   0.0000000   0.0000000   0.0000000   0.0000000   0.0000000   0.0000000
 NMagM=    0.0000000   0.0000000   0.0000000   2.7928460   2.7928460   2.7928460   0.0000000   0.0000000   0.0000000   0.0000000
 AtZNuc=   6.0000000   6.0000000   6.0000000   1.0000000   1.0000000   1.0000000   6.0000000   6.0000000   6.0000000   6.0000000

  Atom        31          32          33          34          35          36          37          38          39          40
 IAtWgt=          12           1          12           1          12           1           1           1          19          12
 AtmWgt=  12.0000000   1.0078250  12.0000000   1.0078250  12.0000000   1.0078250   1.0078250   1.0078250  18.9984032  12.0000000
 NucSpn=           0           1           0           1           0           1           1           1           1           0
 AtZEff=  -0.0000000  -0.0000000  -0.0000000  -0.0000000  -0.0000000  -0.0000000  -0.0000000  -0.0000000  -0.0000000  -0.0000000
 NQMom=    0.0000000   0.0000000   0.0000000   0.0000000   0.0000000   0.0000000   0.0000000   0.0000000   0.0000000   0.0000000
 NMagM=    0.0000000   2.7928460   0.0000000   2.7928460   0.0000000   2.7928460   2.7928460   2.7928460   2.6288670   0.0000000
 AtZNuc=   6.0000000   1.0000000   6.0000000   1.0000000   6.0000000   1.0000000   1.0000000   1.0000000   9.0000000   6.0000000

  Atom        41          42          43          44          45          46          47          48          49          50
 IAtWgt=           1           1           1          12          12          12           1           1          12           1
 AtmWgt=   1.0078250   1.0078250   1.0078250  12.0000000  12.0000000  12.0000000   1.0078250   1.0078250  12.0000000   1.0078250
 NucSpn=           1           1           1           0           0           0           1           1           0           1
 AtZEff=  -0.0000000  -0.0000000  -0.0000000  -0.0000000  -0.0000000  -0.0000000  -0.0000000  -0.0000000  -0.0000000  -0.0000000
 NQMom=    0.0000000   0.0000000   0.0000000   0.0000000   0.0000000   0.0000000   0.0000000   0.0000000   0.0000000   0.0000000
 NMagM=    2.7928460   2.7928460   2.7928460   0.0000000   0.0000000   0.0000000   2.7928460   2.7928460   0.0000000   2.7928460
 AtZNuc=   1.0000000   1.0000000   1.0000000   6.0000000   6.0000000   6.0000000   1.0000000   1.0000000   6.0000000   1.0000000

  Atom        51          52          53          54          55          56          57          58          59
 IAtWgt=           1           1           1           1           1          14          16           1           1
 AtmWgt=   1.0078250   1.0078250   1.0078250   1.0078250   1.0078250  14.0030740  15.9949146   1.0078250   1.0078250
 NucSpn=           1           1           1           1           1           2           0           1           1
 AtZEff=  -0.0000000  -0.0000000  -0.0000000  -0.0000000  -0.0000000  -0.0000000  -0.0000000  -0.0000000  -0.0000000
 NQMom=    0.0000000   0.0000000   0.0000000   0.0000000   0.0000000   2.0440000   0.0000000   0.0000000   0.0000000
 NMagM=    2.7928460   2.7928460   2.7928460   2.7928460   2.7928460   0.4037610   0.0000000   2.7928460   2.7928460
 AtZNuc=   1.0000000   1.0000000   1.0000000   1.0000000   1.0000000   7.0000000   8.0000000   1.0000000   1.0000000
 Leave Link  101 at Wed Feb 26 18:42:40 2025, MaxMem=  4294967296 cpu:               7.4 elap:               0.5
 (Enter /ihome/crc/install/gaussian/c01/avx2/tar/g16/l103.exe)

 GradGradGradGradGradGradGradGradGradGradGradGradGradGradGradGradGradGrad
 Berny optimization.
 Initialization pass.
                           ----------------------------
                           !    Initial Parameters    !
                           ! (Angstroms and Degrees)  !
 --------------------------                            --------------------------
 ! Name  Definition              Value          Derivative Info.                !
 --------------------------------------------------------------------------------
 ! R1    R(1,2)                  1.3371         estimate D2E/DX2                !
 ! R2    R(1,5)                  1.3566         estimate D2E/DX2                !
 ! R3    R(2,3)                  1.5377         estimate D2E/DX2                !
 ! R4    R(2,7)                  1.2463         estimate D2E/DX2                !
 ! R5    R(3,4)                  1.5339         estimate D2E/DX2                !
 ! R6    R(3,8)                  1.0997         estimate D2E/DX2                !
 ! R7    R(3,9)                  1.0961         estimate D2E/DX2                !
 ! R8    R(4,5)                  1.5387         estimate D2E/DX2                !
 ! R9    R(4,10)                 1.1061         estimate D2E/DX2                !
 ! R10   R(4,11)                 1.0947         estimate D2E/DX2                !
 ! R11   R(5,6)                  1.2209         estimate D2E/DX2                !
 ! R12   R(7,59)                 1.7472         estimate D2E/DX2                !
 ! R13   R(12,13)                1.3723         estimate D2E/DX2                !
 ! R14   R(12,17)                1.3683         estimate D2E/DX2                !
 ! R15   R(12,19)                1.485          estimate D2E/DX2                !
 ! R16   R(13,14)                1.4115         estimate D2E/DX2                !
 ! R17   R(13,58)                1.1014         estimate D2E/DX2                !
 ! R18   R(14,15)                1.3803         estimate D2E/DX2                !
 ! R19   R(14,40)                1.5012         estimate D2E/DX2                !
 ! R20   R(15,16)                1.4347         estimate D2E/DX2                !
 ! R21   R(15,18)                1.0824         estimate D2E/DX2                !
 ! R22   R(16,17)                1.3627         estimate D2E/DX2                !
 ! R23   R(16,56)                1.3388         estimate D2E/DX2                !
 ! R24   R(17,59)                1.1975         estimate D2E/DX2                !
 ! R25   R(19,20)                1.416          estimate D2E/DX2                !
 ! R26   R(19,27)                1.3925         estimate D2E/DX2                !
 ! R27   R(20,21)                1.4047         estimate D2E/DX2                !
 ! R28   R(20,28)                1.4893         estimate D2E/DX2                !
 ! R29   R(21,23)                1.3914         estimate D2E/DX2                !
 ! R30   R(21,24)                1.0899         estimate D2E/DX2                !
 ! R31   R(22,23)                1.3914         estimate D2E/DX2                !
 ! R32   R(22,26)                1.0871         estimate D2E/DX2                !
 ! R33   R(22,27)                1.3904         estimate D2E/DX2                !
 ! R34   R(23,25)                1.0921         estimate D2E/DX2                !
 ! R35   R(27,39)                1.3343         estimate D2E/DX2                !
 ! R36   R(28,29)                1.4101         estimate D2E/DX2                !
 ! R37   R(28,30)                1.3973         estimate D2E/DX2                !
 ! R38   R(29,31)                1.3899         estimate D2E/DX2                !
 ! R39   R(29,32)                1.0923         estimate D2E/DX2                !
 ! R40   R(30,33)                1.3935         estimate D2E/DX2                !
 ! R41   R(30,34)                1.1008         estimate D2E/DX2                !
 ! R42   R(31,35)                1.3987         estimate D2E/DX2                !
 ! R43   R(31,36)                1.0957         estimate D2E/DX2                !
 ! R44   R(33,35)                1.3917         estimate D2E/DX2                !
 ! R45   R(33,37)                1.0951         estimate D2E/DX2                !
 ! R46   R(35,38)                1.0915         estimate D2E/DX2                !
 ! R47   R(40,41)                1.0972         estimate D2E/DX2                !
 ! R48   R(40,42)                1.0987         estimate D2E/DX2                !
 ! R49   R(40,43)                1.0959         estimate D2E/DX2                !
 ! R50   R(44,46)                1.5204         estimate D2E/DX2                !
 ! R51   R(44,47)                1.0994         estimate D2E/DX2                !
 ! R52   R(44,48)                1.1026         estimate D2E/DX2                !
 ! R53   R(44,56)                1.4638         estimate D2E/DX2                !
 ! R54   R(45,49)                1.5275         estimate D2E/DX2                !
 ! R55   R(45,50)                1.0934         estimate D2E/DX2                !
 ! R56   R(45,51)                1.1061         estimate D2E/DX2                !
 ! R57   R(45,56)                1.4636         estimate D2E/DX2                !
 ! R58   R(46,52)                1.0976         estimate D2E/DX2                !
 ! R59   R(46,53)                1.0954         estimate D2E/DX2                !
 ! R60   R(46,57)                1.4124         estimate D2E/DX2                !
 ! R61   R(49,54)                1.111          estimate D2E/DX2                !
 ! R62   R(49,55)                1.0984         estimate D2E/DX2                !
 ! R63   R(49,57)                1.4024         estimate D2E/DX2                !
 ! A1    A(2,1,5)              109.9991         estimate D2E/DX2                !
 ! A2    A(1,2,3)              112.9632         estimate D2E/DX2                !
 ! A3    A(1,2,7)              124.0212         estimate D2E/DX2                !
 ! A4    A(3,2,7)              123.012          estimate D2E/DX2                !
 ! A5    A(2,3,4)              101.9925         estimate D2E/DX2                !
 ! A6    A(2,3,8)              108.9311         estimate D2E/DX2                !
 ! A7    A(2,3,9)              109.3277         estimate D2E/DX2                !
 ! A8    A(4,3,8)              113.6815         estimate D2E/DX2                !
 ! A9    A(4,3,9)              114.9889         estimate D2E/DX2                !
 ! A10   A(8,3,9)              107.651          estimate D2E/DX2                !
 ! A11   A(3,4,5)              103.0917         estimate D2E/DX2                !
 ! A12   A(3,4,10)             112.7953         estimate D2E/DX2                !
 ! A13   A(3,4,11)             114.6182         estimate D2E/DX2                !
 ! A14   A(5,4,10)             108.3263         estimate D2E/DX2                !
 ! A15   A(5,4,11)             110.4122         estimate D2E/DX2                !
 ! A16   A(10,4,11)            107.4271         estimate D2E/DX2                !
 ! A17   A(1,5,4)              111.6071         estimate D2E/DX2                !
 ! A18   A(1,5,6)              124.6282         estimate D2E/DX2                !
 ! A19   A(4,5,6)              123.7632         estimate D2E/DX2                !
 ! A20   A(2,7,59)             113.3032         estimate D2E/DX2                !
 ! A21   A(13,12,17)           120.1214         estimate D2E/DX2                !
 ! A22   A(13,12,19)           123.7978         estimate D2E/DX2                !
 ! A23   A(17,12,19)           116.0805         estimate D2E/DX2                !
 ! A24   A(12,13,14)           118.9511         estimate D2E/DX2                !
 ! A25   A(12,13,58)           119.5968         estimate D2E/DX2                !
 ! A26   A(14,13,58)           121.4499         estimate D2E/DX2                !
 ! A27   A(13,14,15)           119.4028         estimate D2E/DX2                !
 ! A28   A(13,14,40)           119.2821         estimate D2E/DX2                !
 ! A29   A(15,14,40)           121.3148         estimate D2E/DX2                !
 ! A30   A(14,15,16)           120.9838         estimate D2E/DX2                !
 ! A31   A(14,15,18)           118.8145         estimate D2E/DX2                !
 ! A32   A(16,15,18)           120.143          estimate D2E/DX2                !
 ! A33   A(15,16,17)           115.8878         estimate D2E/DX2                !
 ! A34   A(15,16,56)           123.2841         estimate D2E/DX2                !
 ! A35   A(17,16,56)           120.8            estimate D2E/DX2                !
 ! A36   A(12,17,16)           123.194          estimate D2E/DX2                !
 ! A37   A(12,17,59)           115.5661         estimate D2E/DX2                !
 ! A38   A(16,17,59)           120.716          estimate D2E/DX2                !
 ! A39   A(12,19,20)           122.2196         estimate D2E/DX2                !
 ! A40   A(12,19,27)           118.4591         estimate D2E/DX2                !
 ! A41   A(20,19,27)           119.3212         estimate D2E/DX2                !
 ! A42   A(19,20,21)           117.9438         estimate D2E/DX2                !
 ! A43   A(19,20,28)           122.1108         estimate D2E/DX2                !
 ! A44   A(21,20,28)           119.9364         estimate D2E/DX2                !
 ! A45   A(20,21,23)           121.3427         estimate D2E/DX2                !
 ! A46   A(20,21,24)           118.0904         estimate D2E/DX2                !
 ! A47   A(23,21,24)           120.5501         estimate D2E/DX2                !
 ! A48   A(23,22,26)           123.0962         estimate D2E/DX2                !
 ! A49   A(23,22,27)           117.9203         estimate D2E/DX2                !
 ! A50   A(26,22,27)           118.9788         estimate D2E/DX2                !
 ! A51   A(21,23,22)           120.8624         estimate D2E/DX2                !
 ! A52   A(21,23,25)           119.8884         estimate D2E/DX2                !
 ! A53   A(22,23,25)           119.249          estimate D2E/DX2                !
 ! A54   A(19,27,22)           122.6059         estimate D2E/DX2                !
 ! A55   A(19,27,39)           117.71           estimate D2E/DX2                !
 ! A56   A(22,27,39)           119.6813         estimate D2E/DX2                !
 ! A57   A(20,28,29)           119.4428         estimate D2E/DX2                !
 ! A58   A(20,28,30)           121.0117         estimate D2E/DX2                !
 ! A59   A(29,28,30)           119.509          estimate D2E/DX2                !
 ! A60   A(28,29,31)           120.1356         estimate D2E/DX2                !
 ! A61   A(28,29,32)           119.5439         estimate D2E/DX2                !
 ! A62   A(31,29,32)           120.311          estimate D2E/DX2                !
 ! A63   A(28,30,33)           119.8751         estimate D2E/DX2                !
 ! A64   A(28,30,34)           119.4817         estimate D2E/DX2                !
 ! A65   A(33,30,34)           120.6283         estimate D2E/DX2                !
 ! A66   A(29,31,35)           120.057          estimate D2E/DX2                !
 ! A67   A(29,31,36)           119.8209         estimate D2E/DX2                !
 ! A68   A(35,31,36)           120.1207         estimate D2E/DX2                !
 ! A69   A(30,33,35)           120.6212         estimate D2E/DX2                !
 ! A70   A(30,33,37)           118.9437         estimate D2E/DX2                !
 ! A71   A(35,33,37)           120.4075         estimate D2E/DX2                !
 ! A72   A(31,35,33)           119.7858         estimate D2E/DX2                !
 ! A73   A(31,35,38)           119.8015         estimate D2E/DX2                !
 ! A74   A(33,35,38)           120.4117         estimate D2E/DX2                !
 ! A75   A(14,40,41)           110.2415         estimate D2E/DX2                !
 ! A76   A(14,40,42)           109.6058         estimate D2E/DX2                !
 ! A77   A(14,40,43)           111.5988         estimate D2E/DX2                !
 ! A78   A(41,40,42)           107.4155         estimate D2E/DX2                !
 ! A79   A(41,40,43)           109.1731         estimate D2E/DX2                !
 ! A80   A(42,40,43)           108.7003         estimate D2E/DX2                !
 ! A81   A(46,44,47)           109.1461         estimate D2E/DX2                !
 ! A82   A(46,44,48)           109.6074         estimate D2E/DX2                !
 ! A83   A(46,44,56)           109.9461         estimate D2E/DX2                !
 ! A84   A(47,44,48)           106.7275         estimate D2E/DX2                !
 ! A85   A(47,44,56)           113.4887         estimate D2E/DX2                !
 ! A86   A(48,44,56)           107.8229         estimate D2E/DX2                !
 ! A87   A(49,45,50)           108.4351         estimate D2E/DX2                !
 ! A88   A(49,45,51)           109.2476         estimate D2E/DX2                !
 ! A89   A(49,45,56)           109.2803         estimate D2E/DX2                !
 ! A90   A(50,45,51)           108.6369         estimate D2E/DX2                !
 ! A91   A(50,45,56)           112.2921         estimate D2E/DX2                !
 ! A92   A(51,45,56)           108.9058         estimate D2E/DX2                !
 ! A93   A(44,46,52)           108.5834         estimate D2E/DX2                !
 ! A94   A(44,46,53)           109.9225         estimate D2E/DX2                !
 ! A95   A(44,46,57)           110.0057         estimate D2E/DX2                !
 ! A96   A(52,46,53)           109.0367         estimate D2E/DX2                !
 ! A97   A(52,46,57)           111.412          estimate D2E/DX2                !
 ! A98   A(53,46,57)           107.8683         estimate D2E/DX2                !
 ! A99   A(45,49,54)           109.0631         estimate D2E/DX2                !
 ! A100  A(45,49,55)           109.4347         estimate D2E/DX2                !
 ! A101  A(45,49,57)           111.7254         estimate D2E/DX2                !
 ! A102  A(54,49,55)           108.5638         estimate D2E/DX2                !
 ! A103  A(54,49,57)           110.5229         estimate D2E/DX2                !
 ! A104  A(55,49,57)           107.4659         estimate D2E/DX2                !
 ! A105  A(16,56,44)           125.7446         estimate D2E/DX2                !
 ! A106  A(16,56,45)           123.5025         estimate D2E/DX2                !
 ! A107  A(44,56,45)           110.4761         estimate D2E/DX2                !
 ! A108  A(46,57,49)           110.9508         estimate D2E/DX2                !
 ! A109  A(7,59,17)            147.4882         estimate D2E/DX2                !
 ! D1    D(5,1,2,3)              2.9702         estimate D2E/DX2                !
 ! D2    D(5,1,2,7)           -176.353          estimate D2E/DX2                !
 ! D3    D(2,1,5,4)              1.0397         estimate D2E/DX2                !
 ! D4    D(2,1,5,6)           -179.3912         estimate D2E/DX2                !
 ! D5    D(1,2,3,4)             -5.5422         estimate D2E/DX2                !
 ! D6    D(1,2,3,8)            114.9188         estimate D2E/DX2                !
 ! D7    D(1,2,3,9)           -127.6941         estimate D2E/DX2                !
 ! D8    D(7,2,3,4)            173.7888         estimate D2E/DX2                !
 ! D9    D(7,2,3,8)            -65.7502         estimate D2E/DX2                !
 ! D10   D(7,2,3,9)             51.6369         estimate D2E/DX2                !
 ! D11   D(1,2,7,59)            20.2786         estimate D2E/DX2                !
 ! D12   D(3,2,7,59)          -158.9782         estimate D2E/DX2                !
 ! D13   D(2,3,4,5)              5.4518         estimate D2E/DX2                !
 ! D14   D(2,3,4,10)          -111.1575         estimate D2E/DX2                !
 ! D15   D(2,3,4,11)           125.481          estimate D2E/DX2                !
 ! D16   D(8,3,4,5)           -111.6344         estimate D2E/DX2                !
 ! D17   D(8,3,4,10)           131.7563         estimate D2E/DX2                !
 ! D18   D(8,3,4,11)             8.3947         estimate D2E/DX2                !
 ! D19   D(9,3,4,5)            123.6357         estimate D2E/DX2                !
 ! D20   D(9,3,4,10)             7.0265         estimate D2E/DX2                !
 ! D21   D(9,3,4,11)          -116.3351         estimate D2E/DX2                !
 ! D22   D(3,4,5,1)             -4.4204         estimate D2E/DX2                !
 ! D23   D(3,4,5,6)            176.006          estimate D2E/DX2                !
 ! D24   D(10,4,5,1)           115.3193         estimate D2E/DX2                !
 ! D25   D(10,4,5,6)           -64.2542         estimate D2E/DX2                !
 ! D26   D(11,4,5,1)          -127.3005         estimate D2E/DX2                !
 ! D27   D(11,4,5,6)            53.126          estimate D2E/DX2                !
 ! D28   D(2,7,59,17)           19.5941         estimate D2E/DX2                !
 ! D29   D(17,12,13,14)          1.0887         estimate D2E/DX2                !
 ! D30   D(17,12,13,58)       -178.3746         estimate D2E/DX2                !
 ! D31   D(19,12,13,14)       -179.1092         estimate D2E/DX2                !
 ! D32   D(19,12,13,58)          1.4275         estimate D2E/DX2                !
 ! D33   D(13,12,17,16)        -11.7735         estimate D2E/DX2                !
 ! D34   D(13,12,17,59)        159.9622         estimate D2E/DX2                !
 ! D35   D(19,12,17,16)        168.4097         estimate D2E/DX2                !
 ! D36   D(19,12,17,59)        -19.8547         estimate D2E/DX2                !
 ! D37   D(13,12,19,20)         61.4693         estimate D2E/DX2                !
 ! D38   D(13,12,19,27)       -118.4335         estimate D2E/DX2                !
 ! D39   D(17,12,19,20)       -118.7213         estimate D2E/DX2                !
 ! D40   D(17,12,19,27)         61.3758         estimate D2E/DX2                !
 ! D41   D(12,13,14,15)          6.6328         estimate D2E/DX2                !
 ! D42   D(12,13,14,40)       -173.5695         estimate D2E/DX2                !
 ! D43   D(58,13,14,15)       -173.9142         estimate D2E/DX2                !
 ! D44   D(58,13,14,40)          5.8835         estimate D2E/DX2                !
 ! D45   D(13,14,15,16)         -4.4841         estimate D2E/DX2                !
 ! D46   D(13,14,15,18)        178.2987         estimate D2E/DX2                !
 ! D47   D(40,14,15,16)        175.7225         estimate D2E/DX2                !
 ! D48   D(40,14,15,18)         -1.4947         estimate D2E/DX2                !
 ! D49   D(13,14,40,41)        -57.9173         estimate D2E/DX2                !
 ! D50   D(13,14,40,42)         60.1158         estimate D2E/DX2                !
 ! D51   D(13,14,40,43)       -179.4151         estimate D2E/DX2                !
 ! D52   D(15,14,40,41)        121.8764         estimate D2E/DX2                !
 ! D53   D(15,14,40,42)       -120.0906         estimate D2E/DX2                !
 ! D54   D(15,14,40,43)          0.3786         estimate D2E/DX2                !
 ! D55   D(14,15,16,17)         -5.2309         estimate D2E/DX2                !
 ! D56   D(14,15,16,56)        176.6872         estimate D2E/DX2                !
 ! D57   D(18,15,16,17)        171.9496         estimate D2E/DX2                !
 ! D58   D(18,15,16,56)         -6.1323         estimate D2E/DX2                !
 ! D59   D(15,16,17,12)         13.5118         estimate D2E/DX2                !
 ! D60   D(15,16,17,59)       -157.8134         estimate D2E/DX2                !
 ! D61   D(56,16,17,12)       -168.3548         estimate D2E/DX2                !
 ! D62   D(56,16,17,59)         20.32           estimate D2E/DX2                !
 ! D63   D(15,16,56,44)        177.7894         estimate D2E/DX2                !
 ! D64   D(15,16,56,45)         -8.8381         estimate D2E/DX2                !
 ! D65   D(17,16,56,44)         -0.2017         estimate D2E/DX2                !
 ! D66   D(17,16,56,45)        173.1708         estimate D2E/DX2                !
 ! D67   D(12,17,59,7)          66.7978         estimate D2E/DX2                !
 ! D68   D(16,17,59,7)        -121.245          estimate D2E/DX2                !
 ! D69   D(12,19,20,21)       -179.2226         estimate D2E/DX2                !
 ! D70   D(12,19,20,28)          1.8666         estimate D2E/DX2                !
 ! D71   D(27,19,20,21)          0.6794         estimate D2E/DX2                !
 ! D72   D(27,19,20,28)       -178.2314         estimate D2E/DX2                !
 ! D73   D(12,19,27,22)        179.6001         estimate D2E/DX2                !
 ! D74   D(12,19,27,39)          0.2122         estimate D2E/DX2                !
 ! D75   D(20,19,27,22)         -0.3057         estimate D2E/DX2                !
 ! D76   D(20,19,27,39)       -179.6936         estimate D2E/DX2                !
 ! D77   D(19,20,21,23)         -0.6309         estimate D2E/DX2                !
 ! D78   D(19,20,21,24)       -179.1438         estimate D2E/DX2                !
 ! D79   D(28,20,21,23)        178.3044         estimate D2E/DX2                !
 ! D80   D(28,20,21,24)         -0.2084         estimate D2E/DX2                !
 ! D81   D(19,20,28,29)       -129.5746         estimate D2E/DX2                !
 ! D82   D(19,20,28,30)         52.6323         estimate D2E/DX2                !
 ! D83   D(21,20,28,29)         51.5358         estimate D2E/DX2                !
 ! D84   D(21,20,28,30)       -126.2574         estimate D2E/DX2                !
 ! D85   D(20,21,23,22)          0.1892         estimate D2E/DX2                !
 ! D86   D(20,21,23,25)       -179.6807         estimate D2E/DX2                !
 ! D87   D(24,21,23,22)        178.6658         estimate D2E/DX2                !
 ! D88   D(24,21,23,25)         -1.2041         estimate D2E/DX2                !
 ! D89   D(26,22,23,21)       -179.0027         estimate D2E/DX2                !
 ! D90   D(26,22,23,25)          0.868          estimate D2E/DX2                !
 ! D91   D(27,22,23,21)          0.2055         estimate D2E/DX2                !
 ! D92   D(27,22,23,25)       -179.9238         estimate D2E/DX2                !
 ! D93   D(23,22,27,19)         -0.1446         estimate D2E/DX2                !
 ! D94   D(23,22,27,39)        179.2316         estimate D2E/DX2                !
 ! D95   D(26,22,27,19)        179.0971         estimate D2E/DX2                !
 ! D96   D(26,22,27,39)         -1.5266         estimate D2E/DX2                !
 ! D97   D(20,28,29,31)       -179.3336         estimate D2E/DX2                !
 ! D98   D(20,28,29,32)          1.7797         estimate D2E/DX2                !
 ! D99   D(30,28,29,31)         -1.5069         estimate D2E/DX2                !
 ! D100  D(30,28,29,32)        179.6064         estimate D2E/DX2                !
 ! D101  D(20,28,30,33)        179.0381         estimate D2E/DX2                !
 ! D102  D(20,28,30,34)          0.4356         estimate D2E/DX2                !
 ! D103  D(29,28,30,33)          1.2464         estimate D2E/DX2                !
 ! D104  D(29,28,30,34)       -177.3561         estimate D2E/DX2                !
 ! D105  D(28,29,31,35)          1.1311         estimate D2E/DX2                !
 ! D106  D(28,29,31,36)       -179.2985         estimate D2E/DX2                !
 ! D107  D(32,29,31,35)       -179.9908         estimate D2E/DX2                !
 ! D108  D(32,29,31,36)         -0.4204         estimate D2E/DX2                !
 ! D109  D(28,30,33,35)         -0.622          estimate D2E/DX2                !
 ! D110  D(28,30,33,37)       -178.7164         estimate D2E/DX2                !
 ! D111  D(34,30,33,35)        177.9642         estimate D2E/DX2                !
 ! D112  D(34,30,33,37)         -0.1302         estimate D2E/DX2                !
 ! D113  D(29,31,35,33)         -0.4942         estimate D2E/DX2                !
 ! D114  D(29,31,35,38)        179.8623         estimate D2E/DX2                !
 ! D115  D(36,31,35,33)        179.9368         estimate D2E/DX2                !
 ! D116  D(36,31,35,38)          0.2932         estimate D2E/DX2                !
 ! D117  D(30,33,35,31)          0.2374         estimate D2E/DX2                !
 ! D118  D(30,33,35,38)        179.8787         estimate D2E/DX2                !
 ! D119  D(37,33,35,31)        178.3038         estimate D2E/DX2                !
 ! D120  D(37,33,35,38)         -2.0548         estimate D2E/DX2                !
 ! D121  D(47,44,46,52)         61.4359         estimate D2E/DX2                !
 ! D122  D(47,44,46,53)        -57.7652         estimate D2E/DX2                !
 ! D123  D(47,44,46,57)       -176.4033         estimate D2E/DX2                !
 ! D124  D(48,44,46,52)        177.994          estimate D2E/DX2                !
 ! D125  D(48,44,46,53)         58.7928         estimate D2E/DX2                !
 ! D126  D(48,44,46,57)        -59.8453         estimate D2E/DX2                !
 ! D127  D(56,44,46,52)        -63.6513         estimate D2E/DX2                !
 ! D128  D(56,44,46,53)        177.1476         estimate D2E/DX2                !
 ! D129  D(56,44,46,57)         58.5094         estimate D2E/DX2                !
 ! D130  D(46,44,56,16)        117.6603         estimate D2E/DX2                !
 ! D131  D(46,44,56,45)        -56.4433         estimate D2E/DX2                !
 ! D132  D(47,44,56,16)         -4.8968         estimate D2E/DX2                !
 ! D133  D(47,44,56,45)       -179.0005         estimate D2E/DX2                !
 ! D134  D(48,44,56,16)       -122.8899         estimate D2E/DX2                !
 ! D135  D(48,44,56,45)         63.0065         estimate D2E/DX2                !
 ! D136  D(50,45,49,54)        -56.5796         estimate D2E/DX2                !
 ! D137  D(50,45,49,55)         62.0477         estimate D2E/DX2                !
 ! D138  D(50,45,49,57)       -179.0577         estimate D2E/DX2                !
 ! D139  D(51,45,49,54)       -174.8212         estimate D2E/DX2                !
 ! D140  D(51,45,49,55)        -56.1939         estimate D2E/DX2                !
 ! D141  D(51,45,49,57)         62.7007         estimate D2E/DX2                !
 ! D142  D(56,45,49,54)         66.1184         estimate D2E/DX2                !
 ! D143  D(56,45,49,55)       -175.2543         estimate D2E/DX2                !
 ! D144  D(56,45,49,57)        -56.3597         estimate D2E/DX2                !
 ! D145  D(49,45,56,16)       -119.6499         estimate D2E/DX2                !
 ! D146  D(49,45,56,44)         54.6115         estimate D2E/DX2                !
 ! D147  D(50,45,56,16)          0.7142         estimate D2E/DX2                !
 ! D148  D(50,45,56,44)        174.9755         estimate D2E/DX2                !
 ! D149  D(51,45,56,16)        121.0779         estimate D2E/DX2                !
 ! D150  D(51,45,56,44)        -64.6607         estimate D2E/DX2                !
 ! D151  D(44,46,57,49)        -60.1761         estimate D2E/DX2                !
 ! D152  D(52,46,57,49)         60.2923         estimate D2E/DX2                !
 ! D153  D(53,46,57,49)        179.931          estimate D2E/DX2                !
 ! D154  D(45,49,57,46)         59.6796         estimate D2E/DX2                !
 ! D155  D(54,49,57,46)        -61.9596         estimate D2E/DX2                !
 ! D156  D(55,49,57,46)        179.7364         estimate D2E/DX2                !
 --------------------------------------------------------------------------------
 Trust Radius=3.00D-01 FncErr=1.00D-07 GrdErr=1.00D-06 EigMax=2.50D+02 EigMin=1.00D-04
 Number of steps in this run=    338 maximum allowed number of steps=    354.
 GradGradGradGradGradGradGradGradGradGradGradGradGradGradGradGradGradGrad

 Leave Link  103 at Wed Feb 26 18:42:40 2025, MaxMem=  4294967296 cpu:               0.3 elap:               0.0
 (Enter /ihome/crc/install/gaussian/c01/avx2/tar/g16/l202.exe)
 Symmetry turned off by external request.
 Stoichiometry    C26H26FN3O3
 Framework group  C1[X(C26H26FN3O3)]
 Deg. of freedom   171
 Full point group                 C1      NOp   1
                          Input orientation:                          
 ---------------------------------------------------------------------
 Center     Atomic      Atomic             Coordinates (Angstroms)
 Number     Number       Type             X           Y           Z
 ---------------------------------------------------------------------
      1          7           0       -1.047885   -6.994365   -5.153156
      2          6           0       -0.120854   -7.481760   -4.321892
      3          6           0       -0.722961   -8.277710   -3.152123
      4          6           0       -2.227034   -8.057717   -3.357651
      5          6           0       -2.288091   -7.289020   -4.689129
      6          8           0       -3.329131   -6.979783   -5.246960
      7          8           0        1.104690   -7.304563   -4.463067
      8          1           0       -0.414346   -9.329542   -3.239993
      9          1           0       -0.323446   -7.891955   -2.207130
     10          1           0       -2.679276   -7.426024   -2.570315
     11          1           0       -2.818006   -8.977019   -3.420100
     12          6           0        0.891325   -3.885721   -5.090698
     13          6           0        0.874183   -2.586869   -5.533415
     14          6           0        1.080010   -2.330105   -6.905967
     15          6           0        1.155462   -3.387997   -7.789429
     16          6           0        1.123468   -4.744123   -7.322249
     17          7           0        1.127419   -4.907602   -5.969413
     18          1           0        1.285609   -3.179151   -8.843515
     19          6           0        0.668587   -4.279337   -3.676205
     20          6           0       -0.544172   -4.005640   -2.998383
     21          6           0       -0.652006   -4.403502   -1.655493
     22          6           0        1.580779   -5.337551   -1.674524
     23          6           0        0.391342   -5.058598   -1.008715
     24          1           0       -1.589575   -4.206771   -1.135642
     25          1           0        0.279945   -5.361965    0.034477
     26          1           0        2.412620   -5.860876   -1.209735
     27          6           0        1.693422   -4.937575   -3.001341
     28          6           0       -1.694238   -3.340191   -3.671003
     29          6           0       -2.304845   -2.225987   -3.059350
     30          6           0       -2.205938   -3.830591   -4.875237
     31          6           0       -3.387907   -1.602503   -3.667632
     32          1           0       -1.909283   -1.846145   -2.114662
     33          6           0       -3.295638   -3.201258   -5.473919
     34          1           0       -1.756483   -4.726734   -5.329914
     35          6           0       -3.890249   -2.093478   -4.877168
     36          1           0       -3.851167   -0.730069   -3.193539
     37          1           0       -3.697661   -3.611015   -6.406457
     38          1           0       -4.742385   -1.601974   -5.350084
     39          9           0        2.824402   -5.173543   -3.668803
     40          6           0        1.207953   -0.910253   -7.376209
     41          1           0        0.312226   -0.338033   -7.103987
     42          1           0        2.065487   -0.433860   -6.881378
     43          1           0        1.353703   -0.856159   -8.461061
     44          6           0        1.143260   -7.206537   -7.723518
     45          6           0        0.979953   -5.702933   -9.593327
     46          6           0       -0.118900   -7.904021   -8.205405
     47          1           0        1.235833   -7.339323   -6.636132
     48          1           0        2.026770   -7.684740   -8.177989
     49          6           0       -0.263171   -6.477000  -10.027752
     50          1           0        0.877317   -4.667382   -9.929004
     51          1           0        1.871733   -6.144397  -10.076444
     52          1           0       -0.984179   -7.438948   -7.715835
     53          1           0       -0.084400   -8.965455   -7.937098
     54          1           0       -1.165171   -5.975045   -9.616925
     55          1           0       -0.330530   -6.474737  -11.124044
     56          7           0        1.128819   -5.803550   -8.140816
     57          8           0       -0.212978   -7.815384   -9.611890
     58          1           0        0.710005   -1.769086   -4.814091
     59          1           0        1.492837   -5.936990   -5.478784
 ---------------------------------------------------------------------
 Rotational constants (GHZ):           0.1605565           0.1242768           0.1099190
 Leave Link  202 at Wed Feb 26 18:42:40 2025, MaxMem=  4294967296 cpu:               0.9 elap:               0.1
 (Enter /ihome/crc/install/gaussian/c01/avx2/tar/g16/l301.exe)
 General basis read from cards:  (5D, 7F)
 Centers:       2      3      4      5     12     13     14     15     16     19
 Centers:      20     21     22     23     27     28     29     30     31     33
 Centers:      35     40     44     45     46     49      8      9     10     11
 Centers:      18     24     25     26     32     34     36     37     38     41
 Centers:      42     43     47     48     50     51     52     53     54     55
 Centers:      58     59      1     17     56     39      6      7     57
 def2svp
 ****
 ======================================================================================================
                                       Pseudopotential Parameters
 ======================================================================================================
  Center     Atomic      Valence      Angular      Power
  Number     Number     Electrons     Momentum     of R      Exponent        Coefficient   SO-Coeffient
 ======================================================================================================
    1          7
                                   No pseudopotential on this center.
    2          6
                                   No pseudopotential on this center.
    3          6
                                   No pseudopotential on this center.
    4          6
                                   No pseudopotential on this center.
    5          6
                                   No pseudopotential on this center.
    6          8
                                   No pseudopotential on this center.
    7          8
                                   No pseudopotential on this center.
    8          1
                                   No pseudopotential on this center.
    9          1
                                   No pseudopotential on this center.
   10          1
                                   No pseudopotential on this center.
   11          1
                                   No pseudopotential on this center.
   12          6
                                   No pseudopotential on this center.
   13          6
                                   No pseudopotential on this center.
   14          6
                                   No pseudopotential on this center.
   15          6
                                   No pseudopotential on this center.
   16          6
                                   No pseudopotential on this center.
   17          7
                                   No pseudopotential on this center.
   18          1
                                   No pseudopotential on this center.
   19          6
                                   No pseudopotential on this center.
   20          6
                                   No pseudopotential on this center.
   21          6
                                   No pseudopotential on this center.
   22          6
                                   No pseudopotential on this center.
   23          6
                                   No pseudopotential on this center.
   24          1
                                   No pseudopotential on this center.
   25          1
                                   No pseudopotential on this center.
   26          1
                                   No pseudopotential on this center.
   27          6
                                   No pseudopotential on this center.
   28          6
                                   No pseudopotential on this center.
   29          6
                                   No pseudopotential on this center.
   30          6
                                   No pseudopotential on this center.
   31          6
                                   No pseudopotential on this center.
   32          1
                                   No pseudopotential on this center.
   33          6
                                   No pseudopotential on this center.
   34          1
                                   No pseudopotential on this center.
   35          6
                                   No pseudopotential on this center.
   36          1
                                   No pseudopotential on this center.
   37          1
                                   No pseudopotential on this center.
   38          1
                                   No pseudopotential on this center.
   39          9
                                   No pseudopotential on this center.
   40          6
                                   No pseudopotential on this center.
   41          1
                                   No pseudopotential on this center.
   42          1
                                   No pseudopotential on this center.
   43          1
                                   No pseudopotential on this center.
   44          6
                                   No pseudopotential on this center.
   45          6
                                   No pseudopotential on this center.
   46          6
                                   No pseudopotential on this center.
   47          1
                                   No pseudopotential on this center.
   48          1
                                   No pseudopotential on this center.
   49          6
                                   No pseudopotential on this center.
   50          1
                                   No pseudopotential on this center.
   51          1
                                   No pseudopotential on this center.
   52          1
                                   No pseudopotential on this center.
   53          1
                                   No pseudopotential on this center.
   54          1
                                   No pseudopotential on this center.
   55          1
                                   No pseudopotential on this center.
   56          7
                                   No pseudopotential on this center.
   57          8
                                   No pseudopotential on this center.
   58          1
                                   No pseudopotential on this center.
   59          1
                                   No pseudopotential on this center.
 ======================================================================================================
 Ernie: Thresh=  0.10000D-02 Tol=  0.10000D-05 Strict=F.
   592 basis functions,  1007 primitive gaussians,   625 cartesian basis functions
   118 alpha electrons      118 beta electrons
       nuclear repulsion energy      3592.5245226991 Hartrees.
 IExCor= 4336 DFT=T Ex+Corr=M062X ExCW=0 ScaHFX=  0.540000
 ScaDFX=  1.000000  1.000000  1.000000  1.000000 ScalE2=  1.000000  1.000000
 IRadAn=      5 IRanWt=     -1 IRanGd=            0 ICorTp=0 IEmpDi=131
 NAtoms=   59 NActive=   59 NUniq=   59 SFac= 1.00D+00 NAtFMM=   60 NAOKFM=F Big=F
 Integral buffers will be    131072 words long.
 Raffenetti 2 integral format.
 Two-electron integral symmetry is turned off.
 R6Disp:  Grimme-D3 Dispersion energy=       -0.0065340811 Hartrees.
 Nuclear repulsion after empirical dispersion term =     3592.5179886179 Hartrees.
 ------------------------------------------------------------------------------
 Polarizable Continuum Model (PCM)
 =================================
 Model                : PCM.
 Atomic radii         : SMD-Coulomb.
 Polarization charges : Total charges.
 Charge compensation  : None.
 Solution method      : On-the-fly selection.
 Cavity type          : VdW (van der Waals Surface) (Alpha=1.000).
 Cavity algorithm     : GePol (No added spheres)
                        Default sphere list used, NSphG=   59.
                        Lebedev-Laikov grids with approx.  5.0 points / Ang**2.
                        Smoothing algorithm: York/Karplus (Gamma=1.0000).
                        Polarization charges: spherical gaussians, with
                                              point-specific exponents (IZeta= 3).
                        Self-potential: point-specific (ISelfS= 7).
                        Self-field    : sphere-specific E.n sum rule (ISelfD= 2).
 1st derivatives      : Analytical E(r).r(x)/FMM algorithm (CHGder, D1EAlg=3).
                        Cavity 1st derivative terms included.
 Solvent              : PropylEthanoate, Eps=   5.520500 Eps(inf)=   1.916010
 ------------------------------------------------------------------------------
 GePol: Number of generator spheres                  =      59
 GePol: Total number of spheres                      =      59
 GePol: Number of exposed spheres                    =      59 (100.00%)
 GePol: Number of points                             =    4219
 GePol: Average weight of points                     =       0.11
 GePol: Minimum weight of points                     =   0.62D-11
 GePol: Maximum weight of points                     =    0.21501
 GePol: Number of points with low weight             =     273
 GePol: Fraction of low-weight points (<1% of avg)   =       6.47%
 GePol: Cavity surface area                          =    467.063 Ang**2
 GePol: Cavity volume                                =    495.066 Ang**3
 ------------------------------------------------------------------------------
 Atomic radii for non-electrostatic terms: SMD-CDS.
 ------------------------------------------------------------------------------
 PCM non-electrostatic energy =        -0.0146084908 Hartrees.
 Nuclear repulsion after PCM non-electrostatic terms =     3592.5033801272 Hartrees.
 Leave Link  301 at Wed Feb 26 18:42:40 2025, MaxMem=  4294967296 cpu:               1.4 elap:               0.1
 (Enter /ihome/crc/install/gaussian/c01/avx2/tar/g16/l302.exe)
 NPDir=0 NMtPBC=     1 NCelOv=     1 NCel=       1 NClECP=     1 NCelD=      1
         NCelK=      1 NCelE2=     1 NClLst=     1 CellRange=     0.0.
 One-electron integrals computed using PRISM.
   1 Symmetry operations used in ECPInt.
 ECPInt:  NShTT=   38226 NPrTT=  139108 LenC2=   33761 LenP2D=   81044.
 LDataN:  DoStor=T MaxTD1= 4 Len=   56
 NBasis=   592 RedAO= T EigKep=  2.13D-04  NBF=   592
 NBsUse=   592 1.00D-06 EigRej= -1.00D+00 NBFU=   592
 Precomputing XC quadrature grid using
 IXCGrd= 4 IRadAn=           5 IRanWt=          -1 IRanGd=           0 AccXCQ= 0.00D+00.
 Generated NRdTot=       0 NPtTot=           0 NUsed=           0 NTot=          32
 NSgBfM=   621   621   621   621   621 MxSgAt=    59 MxSgA2=    59.
 Leave Link  302 at Wed Feb 26 18:42:41 2025, MaxMem=  4294967296 cpu:              16.5 elap:               0.8
 (Enter /ihome/crc/install/gaussian/c01/avx2/tar/g16/l303.exe)
 DipDrv:  MaxL=1.
 Leave Link  303 at Wed Feb 26 18:42:41 2025, MaxMem=  4294967296 cpu:               1.8 elap:               0.1
 (Enter /ihome/crc/install/gaussian/c01/avx2/tar/g16/l401.exe)
 ExpMin= 1.22D-01 ExpMax= 2.89D+03 ExpMxC= 4.35D+02 IAcc=3 IRadAn=         5 AccDes= 0.00D+00
 Harris functional with IExCor= 1009 and IRadAn=       5 diagonalized for initial guess.
 HarFok:  IExCor= 1009 AccDes= 0.00D+00 IRadAn=         5 IDoV= 1 UseB2=F ITyADJ=14
 ICtDFT=  3500011 ScaDFX=  1.000000  1.000000  1.000000  1.000000
 FoFCou: FMM=F IPFlag=           0 FMFlag=      100000 FMFlg1=           0
         NFxFlg=           0 DoJE=T BraDBF=F KetDBF=T FulRan=T
         wScrn=  0.000000 ICntrl=       500 IOpCl=  0 I1Cent=   200000004 NGrid=           0
         NMat0=    1 NMatS0=      1 NMatT0=    0 NMatD0=    1 NMtDS0=    0 NMtDT0=    0
 Symmetry not used in FoFCou.
 Harris En= -1493.74820312084    
 JPrj=0 DoOrth=F DoCkMO=F.
 Leave Link  401 at Wed Feb 26 18:42:42 2025, MaxMem=  4294967296 cpu:              26.8 elap:               1.2
 (Enter /ihome/crc/install/gaussian/c01/avx2/tar/g16/l502.exe)
 Two-electron integral symmetry not used.
 Closed shell SCF:
 Using DIIS extrapolation, IDIIS=  1040.
 NGot=  4294967296 LenX=  4294164569 LenY=  4293773319
 Requested convergence on RMS density matrix=1.00D-08 within 128 cycles.
 Requested convergence on MAX density matrix=1.00D-06.
 Requested convergence on             energy=1.00D-06.
 No special actions if energy rises.
 Fock matrices will be formed incrementally for  20 cycles.

 Cycle   1  Pass 1  IDiag  1:
 FoFJK:  IHMeth= 1 ICntrl=       0 DoSepK=F KAlg= 0 I1Cent=           0 FoldK=F
 IRaf= 800000000 NMat=       1 IRICut=       1 DoRegI=T DoRafI=F ISym2E= 0 IDoP0=0 IntGTp=1.
 FoFCou: FMM=F IPFlag=           0 FMFlag=      100000 FMFlg1=           0
         NFxFlg=           0 DoJE=F BraDBF=F KetDBF=F FulRan=T
         wScrn=  0.000000 ICntrl=         0 IOpCl=  0 I1Cent=           0 NGrid=           0
         NMat0=    1 NMatS0=      1 NMatT0=    0 NMatD0=    1 NMtDS0=    0 NMtDT0=    0
 Symmetry not used in FoFCou.
 Inv3:  Mode=1 IEnd=    53399883.
 Iteration    1 A*A^-1 deviation from unit magnitude is 3.77D-15 for   3777.
 Iteration    1 A*A^-1 deviation from orthogonality  is 3.33D-15 for   3193    880.
 Iteration    1 A^-1*A deviation from unit magnitude is 3.11D-15 for    520.
 Iteration    1 A^-1*A deviation from orthogonality  is 8.55D-12 for   2030   1979.
 E= -1493.90058496122    
 DIIS: error= 2.41D-02 at cycle   1 NSaved=   1.
 NSaved= 1 IEnMin= 1 EnMin= -1493.90058496122     IErMin= 1 ErrMin= 2.41D-02
 ErrMax= 2.41D-02  0.00D+00 EMaxC= 1.00D-01 BMatC= 6.60D-01 BMatP= 6.60D-01
 IDIUse=3 WtCom= 7.59D-01 WtEn= 2.41D-01
 Coeff-Com:  0.100D+01
 Coeff-En:   0.100D+01
 Coeff:      0.100D+01
 Gap=     0.301 Goal=   None    Shift=    0.000
 GapD=    0.301 DampG=1.000 DampE=0.500 DampFc=0.5000 IDamp=-1.
 Damping current iteration by 5.00D-01
 RMSDP=3.32D-03 MaxDP=2.99D-01              OVMax= 1.56D-01

 Cycle   2  Pass 1  IDiag  1:
 RMSU=  1.64D-03    CP:  9.80D-01
 E= -1494.21932125198     Delta-E=       -0.318736290752 Rises=F Damp=T
 DIIS: error= 4.29D-03 at cycle   2 NSaved=   2.
 NSaved= 2 IEnMin= 2 EnMin= -1494.21932125198     IErMin= 2 ErrMin= 4.29D-03
 ErrMax= 4.29D-03  0.00D+00 EMaxC= 1.00D-01 BMatC= 5.54D-02 BMatP= 6.60D-01
 IDIUse=3 WtCom= 9.57D-01 WtEn= 4.29D-02
 Coeff-Com: -0.852D-01 0.109D+01
 Coeff-En:   0.000D+00 0.100D+01
 Coeff:     -0.816D-01 0.108D+01
 Gap=     0.298 Goal=   None    Shift=    0.000
 RMSDP=9.68D-04 MaxDP=7.13D-02 DE=-3.19D-01 OVMax= 1.16D-01

 Cycle   3  Pass 1  IDiag  1:
 RMSU=  9.38D-04    CP:  9.66D-01  1.07D+00
 E= -1494.50753448632     Delta-E=       -0.288213234343 Rises=F Damp=F
 DIIS: error= 6.75D-03 at cycle   3 NSaved=   3.
 NSaved= 3 IEnMin= 3 EnMin= -1494.50753448632     IErMin= 2 ErrMin= 4.29D-03
 ErrMax= 6.75D-03  0.00D+00 EMaxC= 1.00D-01 BMatC= 2.82D-02 BMatP= 5.54D-02
 IDIUse=3 WtCom= 9.33D-01 WtEn= 6.75D-02
 Coeff-Com: -0.997D-01 0.473D+00 0.627D+00
 Coeff-En:   0.000D+00 0.000D+00 0.100D+01
 Coeff:     -0.930D-01 0.441D+00 0.652D+00
 Gap=     0.240 Goal=   None    Shift=    0.000
 RMSDP=4.47D-04 MaxDP=2.84D-02 DE=-2.88D-01 OVMax= 4.00D-02

 Cycle   4  Pass 1  IDiag  1:
 RMSU=  3.07D-04    CP:  9.68D-01  1.16D+00  6.93D-01
 E= -1494.52779411648     Delta-E=       -0.020259630165 Rises=F Damp=F
 DIIS: error= 3.33D-03 at cycle   4 NSaved=   4.
 NSaved= 4 IEnMin= 4 EnMin= -1494.52779411648     IErMin= 4 ErrMin= 3.33D-03
 ErrMax= 3.33D-03  0.00D+00 EMaxC= 1.00D-01 BMatC= 5.69D-03 BMatP= 2.82D-02
 IDIUse=3 WtCom= 9.67D-01 WtEn= 3.33D-02
 Coeff-Com: -0.305D-01 0.900D-01 0.342D+00 0.599D+00
 Coeff-En:   0.000D+00 0.000D+00 0.151D+00 0.849D+00
 Coeff:     -0.295D-01 0.870D-01 0.335D+00 0.607D+00
 Gap=     0.241 Goal=   None    Shift=    0.000
 RMSDP=1.65D-04 MaxDP=9.73D-03 DE=-2.03D-02 OVMax= 1.54D-02

 Cycle   5  Pass 1  IDiag  1:
 RMSU=  7.62D-05    CP:  9.67D-01  1.14D+00  7.86D-01  6.33D-01
 E= -1494.53259832963     Delta-E=       -0.004804213145 Rises=F Damp=F
 DIIS: error= 7.65D-04 at cycle   5 NSaved=   5.
 NSaved= 5 IEnMin= 5 EnMin= -1494.53259832963     IErMin= 5 ErrMin= 7.65D-04
 ErrMax= 7.65D-04  0.00D+00 EMaxC= 1.00D-01 BMatC= 2.47D-04 BMatP= 5.69D-03
 IDIUse=3 WtCom= 9.92D-01 WtEn= 7.65D-03
 Coeff-Com: -0.805D-02 0.140D-01 0.119D+00 0.278D+00 0.597D+00
 Coeff-En:   0.000D+00 0.000D+00 0.000D+00 0.000D+00 0.100D+01
 Coeff:     -0.799D-02 0.139D-01 0.119D+00 0.276D+00 0.600D+00
 Gap=     0.240 Goal=   None    Shift=    0.000
 RMSDP=3.61D-05 MaxDP=2.86D-03 DE=-4.80D-03 OVMax= 4.38D-03

 Cycle   6  Pass 1  IDiag  1:
 RMSU=  2.46D-05    CP:  9.67D-01  1.14D+00  7.91D-01  6.74D-01  7.00D-01
 E= -1494.53280149973     Delta-E=       -0.000203170105 Rises=F Damp=F
 DIIS: error= 1.58D-04 at cycle   6 NSaved=   6.
 NSaved= 6 IEnMin= 6 EnMin= -1494.53280149973     IErMin= 6 ErrMin= 1.58D-04
 ErrMax= 1.58D-04  0.00D+00 EMaxC= 1.00D-01 BMatC= 1.83D-05 BMatP= 2.47D-04
 IDIUse=3 WtCom= 9.98D-01 WtEn= 1.58D-03
 Coeff-Com: -0.915D-03-0.116D-02 0.239D-01 0.659D-01 0.260D+00 0.652D+00
 Coeff-En:   0.000D+00 0.000D+00 0.000D+00 0.000D+00 0.000D+00 0.100D+01
 Coeff:     -0.914D-03-0.116D-02 0.238D-01 0.658D-01 0.260D+00 0.652D+00
 Gap=     0.241 Goal=   None    Shift=    0.000
 RMSDP=1.03D-05 MaxDP=6.29D-04 DE=-2.03D-04 OVMax= 1.03D-03

 Cycle   7  Pass 1  IDiag  1:
 RMSU=  7.96D-06    CP:  9.67D-01  1.14D+00  7.93D-01  6.75D-01  7.62D-01
                    CP:  8.43D-01
 E= -1494.53281833778     Delta-E=       -0.000016838048 Rises=F Damp=F
 DIIS: error= 3.07D-05 at cycle   7 NSaved=   7.
 NSaved= 7 IEnMin= 7 EnMin= -1494.53281833778     IErMin= 7 ErrMin= 3.07D-05
 ErrMax= 3.07D-05  0.00D+00 EMaxC= 1.00D-01 BMatC= 1.62D-06 BMatP= 1.83D-05
 IDIUse=1 WtCom= 1.00D+00 WtEn= 0.00D+00
 Coeff-Com:  0.537D-03-0.198D-02-0.278D-02-0.527D-02 0.379D-01 0.244D+00
 Coeff-Com:  0.728D+00
 Coeff:      0.537D-03-0.198D-02-0.278D-02-0.527D-02 0.379D-01 0.244D+00
 Coeff:      0.728D+00
 Gap=     0.241 Goal=   None    Shift=    0.000
 RMSDP=4.09D-06 MaxDP=2.50D-04 DE=-1.68D-05 OVMax= 3.78D-04

 Cycle   8  Pass 1  IDiag  1:
 RMSU=  2.99D-06    CP:  9.67D-01  1.14D+00  7.95D-01  6.77D-01  7.74D-01
                    CP:  9.22D-01  9.56D-01
 E= -1494.53282015784     Delta-E=       -0.000001820062 Rises=F Damp=F
 DIIS: error= 1.64D-05 at cycle   8 NSaved=   8.
 NSaved= 8 IEnMin= 8 EnMin= -1494.53282015784     IErMin= 8 ErrMin= 1.64D-05
 ErrMax= 1.64D-05  0.00D+00 EMaxC= 1.00D-01 BMatC= 2.62D-07 BMatP= 1.62D-06
 IDIUse=1 WtCom= 1.00D+00 WtEn= 0.00D+00
 Coeff-Com:  0.427D-03-0.736D-03-0.480D-02-0.136D-01-0.265D-01-0.772D-02
 Coeff-Com:  0.298D+00 0.755D+00
 Coeff:      0.427D-03-0.736D-03-0.480D-02-0.136D-01-0.265D-01-0.772D-02
 Coeff:      0.298D+00 0.755D+00
 Gap=     0.241 Goal=   None    Shift=    0.000
 RMSDP=1.82D-06 MaxDP=1.39D-04 DE=-1.82D-06 OVMax= 2.61D-04

 Cycle   9  Pass 1  IDiag  1:
 RMSU=  1.14D-06    CP:  9.67D-01  1.14D+00  7.95D-01  6.77D-01  7.82D-01
                    CP:  9.50D-01  1.07D+00  9.17D-01
 E= -1494.53282049024     Delta-E=       -0.000000332393 Rises=F Damp=F
 DIIS: error= 4.00D-06 at cycle   9 NSaved=   9.
 NSaved= 9 IEnMin= 9 EnMin= -1494.53282049024     IErMin= 9 ErrMin= 4.00D-06
 ErrMax= 4.00D-06  0.00D+00 EMaxC= 1.00D-01 BMatC= 3.55D-08 BMatP= 2.62D-07
 IDIUse=1 WtCom= 1.00D+00 WtEn= 0.00D+00
 Coeff-Com:  0.152D-03-0.181D-03-0.180D-02-0.571D-02-0.147D-01-0.257D-01
 Coeff-Com:  0.613D-01 0.334D+00 0.652D+00
 Coeff:      0.152D-03-0.181D-03-0.180D-02-0.571D-02-0.147D-01-0.257D-01
 Coeff:      0.613D-01 0.334D+00 0.652D+00
 Gap=     0.241 Goal=   None    Shift=    0.000
 RMSDP=6.12D-07 MaxDP=4.24D-05 DE=-3.32D-07 OVMax= 6.90D-05

 Cycle  10  Pass 1  IDiag  1:
 RMSU=  4.25D-07    CP:  9.67D-01  1.14D+00  7.96D-01  6.76D-01  7.84D-01
                    CP:  9.56D-01  1.09D+00  1.00D+00  9.40D-01
 E= -1494.53282053533     Delta-E=       -0.000000045089 Rises=F Damp=F
 DIIS: error= 1.75D-06 at cycle  10 NSaved=  10.
 NSaved=10 IEnMin=10 EnMin= -1494.53282053533     IErMin=10 ErrMin= 1.75D-06
 ErrMax= 1.75D-06  0.00D+00 EMaxC= 1.00D-01 BMatC= 3.26D-09 BMatP= 3.55D-08
 IDIUse=1 WtCom= 1.00D+00 WtEn= 0.00D+00
 Coeff-Com: -0.244D-04 0.682D-04 0.375D-03 0.636D-03 0.454D-03-0.660D-02
 Coeff-Com: -0.344D-01-0.254D-01 0.192D+00 0.873D+00
 Coeff:     -0.244D-04 0.682D-04 0.375D-03 0.636D-03 0.454D-03-0.660D-02
 Coeff:     -0.344D-01-0.254D-01 0.192D+00 0.873D+00
 Gap=     0.241 Goal=   None    Shift=    0.000
 RMSDP=2.84D-07 MaxDP=1.98D-05 DE=-4.51D-08 OVMax= 6.88D-05

 Cycle  11  Pass 1  IDiag  1:
 RMSU=  1.58D-07    CP:  9.67D-01  1.14D+00  7.96D-01  6.76D-01  7.84D-01
                    CP:  9.58D-01  1.10D+00  1.04D+00  1.08D+00  1.04D+00
 E= -1494.53282054278     Delta-E=       -0.000000007449 Rises=F Damp=F
 DIIS: error= 7.00D-07 at cycle  11 NSaved=  11.
 NSaved=11 IEnMin=11 EnMin= -1494.53282054278     IErMin=11 ErrMin= 7.00D-07
 ErrMax= 7.00D-07  0.00D+00 EMaxC= 1.00D-01 BMatC= 8.84D-10 BMatP= 3.26D-09
 IDIUse=1 WtCom= 1.00D+00 WtEn= 0.00D+00
 Coeff-Com: -0.293D-04 0.532D-04 0.400D-03 0.968D-03 0.202D-02-0.138D-03
 Coeff-Com: -0.229D-01-0.514D-01-0.463D-02 0.412D+00 0.664D+00
 Coeff:     -0.293D-04 0.532D-04 0.400D-03 0.968D-03 0.202D-02-0.138D-03
 Coeff:     -0.229D-01-0.514D-01-0.463D-02 0.412D+00 0.664D+00
 Gap=     0.241 Goal=   None    Shift=    0.000
 RMSDP=9.73D-08 MaxDP=5.02D-06 DE=-7.45D-09 OVMax= 1.50D-05

 Cycle  12  Pass 1  IDiag  1:
 RMSU=  5.98D-08    CP:  9.67D-01  1.14D+00  7.96D-01  6.76D-01  7.85D-01
                    CP:  9.59D-01  1.10D+00  1.05D+00  1.11D+00  1.17D+00
                    CP:  9.97D-01
 E= -1494.53282054411     Delta-E=       -0.000000001338 Rises=F Damp=F
 DIIS: error= 3.41D-07 at cycle  12 NSaved=  12.
 NSaved=12 IEnMin=12 EnMin= -1494.53282054411     IErMin=12 ErrMin= 3.41D-07
 ErrMax= 3.41D-07  0.00D+00 EMaxC= 1.00D-01 BMatC= 7.91D-11 BMatP= 8.84D-10
 IDIUse=1 WtCom= 1.00D+00 WtEn= 0.00D+00
 Coeff-Com: -0.708D-05 0.890D-05 0.894D-04 0.255D-03 0.715D-03 0.863D-03
 Coeff-Com: -0.278D-02-0.152D-01-0.406D-01 0.235D-01 0.234D+00 0.799D+00
 Coeff:     -0.708D-05 0.890D-05 0.894D-04 0.255D-03 0.715D-03 0.863D-03
 Coeff:     -0.278D-02-0.152D-01-0.406D-01 0.235D-01 0.234D+00 0.799D+00
 Gap=     0.241 Goal=   None    Shift=    0.000
 RMSDP=4.17D-08 MaxDP=2.58D-06 DE=-1.34D-09 OVMax= 1.14D-05

 Cycle  13  Pass 1  IDiag  1:
 RMSU=  2.30D-08    CP:  9.67D-01  1.14D+00  7.96D-01  6.76D-01  7.85D-01
                    CP:  9.59D-01  1.10D+00  1.05D+00  1.12D+00  1.22D+00
                    CP:  1.14D+00  9.98D-01
 E= -1494.53282054430     Delta-E=       -0.000000000189 Rises=F Damp=F
 DIIS: error= 7.97D-08 at cycle  13 NSaved=  13.
 NSaved=13 IEnMin=13 EnMin= -1494.53282054430     IErMin=13 ErrMin= 7.97D-08
 ErrMax= 7.97D-08  0.00D+00 EMaxC= 1.00D-01 BMatC= 1.49D-11 BMatP= 7.91D-11
 IDIUse=1 WtCom= 1.00D+00 WtEn= 0.00D+00
 Coeff-Com:  0.446D-06-0.225D-05-0.126D-04-0.143D-04 0.499D-04 0.273D-03
 Coeff-Com:  0.168D-02 0.521D-03-0.154D-01-0.339D-01-0.993D-02 0.302D+00
 Coeff-Com:  0.755D+00
 Coeff:      0.446D-06-0.225D-05-0.126D-04-0.143D-04 0.499D-04 0.273D-03
 Coeff:      0.168D-02 0.521D-03-0.154D-01-0.339D-01-0.993D-02 0.302D+00
 Coeff:      0.755D+00
 Gap=     0.241 Goal=   None    Shift=    0.000
 RMSDP=1.54D-08 MaxDP=6.89D-07 DE=-1.89D-10 OVMax= 3.14D-06

 Cycle  14  Pass 1  IDiag  1:
 RMSU=  8.46D-09    CP:  9.67D-01  1.14D+00  7.96D-01  6.76D-01  7.85D-01
                    CP:  9.59D-01  1.10D+00  1.05D+00  1.12D+00  1.23D+00
                    CP:  1.18D+00  1.12D+00  1.06D+00
 E= -1494.53282054432     Delta-E=       -0.000000000018 Rises=F Damp=F
 DIIS: error= 4.84D-08 at cycle  14 NSaved=  14.
 NSaved=14 IEnMin=14 EnMin= -1494.53282054432     IErMin=14 ErrMin= 4.84D-08
 ErrMax= 4.84D-08  0.00D+00 EMaxC= 1.00D-01 BMatC= 2.08D-12 BMatP= 1.49D-11
 IDIUse=1 WtCom= 1.00D+00 WtEn= 0.00D+00
 Coeff-Com:  0.158D-05-0.248D-05-0.257D-04-0.633D-04-0.138D-03-0.122D-03
 Coeff-Com:  0.134D-02 0.364D-02 0.204D-02-0.169D-01-0.615D-01-0.347D-01
 Coeff-Com:  0.291D+00 0.815D+00
 Coeff:      0.158D-05-0.248D-05-0.257D-04-0.633D-04-0.138D-03-0.122D-03
 Coeff:      0.134D-02 0.364D-02 0.204D-02-0.169D-01-0.615D-01-0.347D-01
 Coeff:      0.291D+00 0.815D+00
 Gap=     0.241 Goal=   None    Shift=    0.000
 RMSDP=6.87D-09 MaxDP=3.27D-07 DE=-1.82D-11 OVMax= 1.76D-06

 Error on total polarization charges =  0.04181
 SCF Done:  E(RM062X) =  -1494.53282054     A.U. after   14 cycles
            NFock= 14  Conv=0.69D-08     -V/T= 2.0101
 KE= 1.479535058211D+03 PE=-1.066307553911D+04 EE= 4.096504280230D+03
 SMD-CDS (non-electrostatic) energy       (kcal/mol) =      -9.17
 (included in total energy above)
 Leave Link  502 at Wed Feb 26 18:44:00 2025, MaxMem=  4294967296 cpu:            1794.0 elap:              77.4
 (Enter /ihome/crc/install/gaussian/c01/avx2/tar/g16/l508.exe)
 QCSCF skips out because SCF is already converged.
 Leave Link  508 at Wed Feb 26 18:44:00 2025, MaxMem=  4294967296 cpu:               0.3 elap:               0.0
 (Enter /ihome/crc/install/gaussian/c01/avx2/tar/g16/l601.exe)
 Copying SCF densities to generalized density rwf, IOpCl= 0 IROHF=0.

 **********************************************************************

            Population analysis using the SCF Density.

 **********************************************************************

 Alpha  occ. eigenvalues --  -25.27010 -19.62925 -19.58893 -19.56588 -14.82988
 Alpha  occ. eigenvalues --  -14.81363 -14.69716 -10.67614 -10.64938 -10.63291
 Alpha  occ. eigenvalues --  -10.62363 -10.61214 -10.59883 -10.59622 -10.59579
 Alpha  occ. eigenvalues --  -10.58867 -10.58520 -10.58365 -10.58209 -10.57363
 Alpha  occ. eigenvalues --  -10.56951 -10.56725 -10.56646 -10.56462 -10.56172
 Alpha  occ. eigenvalues --  -10.55726 -10.55680 -10.55509 -10.55388 -10.55182
 Alpha  occ. eigenvalues --  -10.55038 -10.53882 -10.53449  -1.36008  -1.15456
 Alpha  occ. eigenvalues --   -1.12186  -1.11418  -1.09999  -1.05113  -0.97720
 Alpha  occ. eigenvalues --   -0.97541  -0.94653  -0.93216  -0.90079  -0.87148
 Alpha  occ. eigenvalues --   -0.87037  -0.84433  -0.83397  -0.82838  -0.81510
 Alpha  occ. eigenvalues --   -0.80932  -0.79508  -0.75667  -0.73357  -0.72346
 Alpha  occ. eigenvalues --   -0.71370  -0.71189  -0.68666  -0.67427  -0.66757
 Alpha  occ. eigenvalues --   -0.66100  -0.63873  -0.63316  -0.62547  -0.60548
 Alpha  occ. eigenvalues --   -0.59363  -0.58764  -0.57553  -0.57389  -0.57201
 Alpha  occ. eigenvalues --   -0.56682  -0.55364  -0.54956  -0.54000  -0.53650
 Alpha  occ. eigenvalues --   -0.53364  -0.52733  -0.52271  -0.52165  -0.51884
 Alpha  occ. eigenvalues --   -0.51325  -0.50586  -0.49757  -0.49306  -0.48810
 Alpha  occ. eigenvalues --   -0.48621  -0.48209  -0.47550  -0.47068  -0.46153
 Alpha  occ. eigenvalues --   -0.45073  -0.44641  -0.44399  -0.44270  -0.44074
 Alpha  occ. eigenvalues --   -0.43879  -0.43562  -0.43409  -0.42927  -0.42503
 Alpha  occ. eigenvalues --   -0.41958  -0.41082  -0.40301  -0.39438  -0.39073
 Alpha  occ. eigenvalues --   -0.37694  -0.37094  -0.35552  -0.33966  -0.33433
 Alpha  occ. eigenvalues --   -0.33143  -0.30902  -0.30615  -0.29628  -0.29000
 Alpha  occ. eigenvalues --   -0.28237  -0.27771  -0.26745
 Alpha virt. eigenvalues --   -0.02691  -0.00251   0.00666   0.02771   0.03306
 Alpha virt. eigenvalues --    0.04730   0.05837   0.09992   0.10663   0.11339
 Alpha virt. eigenvalues --    0.11413   0.11794   0.12127   0.12608   0.13132
 Alpha virt. eigenvalues --    0.13731   0.14218   0.15121   0.15559   0.15707
 Alpha virt. eigenvalues --    0.16346   0.16673   0.17250   0.17682   0.18051
 Alpha virt. eigenvalues --    0.18270   0.18316   0.18766   0.19120   0.19351
 Alpha virt. eigenvalues --    0.19789   0.20051   0.20509   0.20927   0.21121
 Alpha virt. eigenvalues --    0.21583   0.22991   0.23808   0.24001   0.24377
 Alpha virt. eigenvalues --    0.24758   0.25422   0.25653   0.27209   0.27397
 Alpha virt. eigenvalues --    0.28009   0.28147   0.29274   0.30160   0.30273
 Alpha virt. eigenvalues --    0.30804   0.31136   0.31674   0.32487   0.33164
 Alpha virt. eigenvalues --    0.33800   0.34434   0.35283   0.35429   0.35896
 Alpha virt. eigenvalues --    0.36393   0.36773   0.38356   0.38678   0.39070
 Alpha virt. eigenvalues --    0.39660   0.40939   0.41091   0.42421   0.43771
 Alpha virt. eigenvalues --    0.44181   0.45172   0.45342   0.45965   0.46325
 Alpha virt. eigenvalues --    0.46971   0.47113   0.48010   0.48445   0.48599
 Alpha virt. eigenvalues --    0.49052   0.49450   0.50074   0.50674   0.51319
 Alpha virt. eigenvalues --    0.51744   0.52229   0.52447   0.52905   0.53415
 Alpha virt. eigenvalues --    0.53722   0.53836   0.54282   0.54606   0.55669
 Alpha virt. eigenvalues --    0.55897   0.56594   0.57056   0.57651   0.58386
 Alpha virt. eigenvalues --    0.59301   0.59845   0.59892   0.60619   0.61300
 Alpha virt. eigenvalues --    0.61848   0.62260   0.62676   0.63254   0.64096
 Alpha virt. eigenvalues --    0.64220   0.64353   0.64780   0.65254   0.65862
 Alpha virt. eigenvalues --    0.66021   0.66747   0.67165   0.67457   0.67794
 Alpha virt. eigenvalues --    0.68467   0.68938   0.69491   0.69783   0.69961
 Alpha virt. eigenvalues --    0.70211   0.70715   0.70933   0.71205   0.71322
 Alpha virt. eigenvalues --    0.71539   0.71649   0.72124   0.72643   0.72968
 Alpha virt. eigenvalues --    0.73179   0.73416   0.73691   0.74208   0.74367
 Alpha virt. eigenvalues --    0.74598   0.74871   0.75142   0.75601   0.75818
 Alpha virt. eigenvalues --    0.76097   0.76458   0.76919   0.77311   0.77697
 Alpha virt. eigenvalues --    0.78215   0.78641   0.78700   0.79537   0.79679
 Alpha virt. eigenvalues --    0.80488   0.81033   0.81106   0.81643   0.82062
 Alpha virt. eigenvalues --    0.82352   0.83021   0.83757   0.84155   0.84489
 Alpha virt. eigenvalues --    0.85202   0.85984   0.86311   0.87159   0.87889
 Alpha virt. eigenvalues --    0.88192   0.88987   0.89138   0.89696   0.90740
 Alpha virt. eigenvalues --    0.91273   0.93034   0.93928   0.95629   0.96004
 Alpha virt. eigenvalues --    0.97067   0.97216   0.97955   1.00063   1.00432
 Alpha virt. eigenvalues --    1.02482   1.03133   1.04525   1.06254   1.06990
 Alpha virt. eigenvalues --    1.07630   1.10073   1.10354   1.11815   1.12926
 Alpha virt. eigenvalues --    1.13752   1.15194   1.15504   1.16608   1.18641
 Alpha virt. eigenvalues --    1.19694   1.20587   1.20743   1.21318   1.22008
 Alpha virt. eigenvalues --    1.23183   1.23393   1.24393   1.25713   1.26469
 Alpha virt. eigenvalues --    1.26716   1.27405   1.27992   1.28755   1.29203
 Alpha virt. eigenvalues --    1.30455   1.31346   1.31844   1.32385   1.32629
 Alpha virt. eigenvalues --    1.33253   1.33722   1.34491   1.34616   1.35589
 Alpha virt. eigenvalues --    1.36301   1.37196   1.37626   1.38443   1.38614
 Alpha virt. eigenvalues --    1.39516   1.39656   1.40546   1.40950   1.42017
 Alpha virt. eigenvalues --    1.42194   1.44654   1.45759   1.46625   1.48015
 Alpha virt. eigenvalues --    1.51598   1.52733   1.53886   1.54473   1.55161
 Alpha virt. eigenvalues --    1.55554   1.56360   1.57074   1.57658   1.58783
 Alpha virt. eigenvalues --    1.60047   1.60536   1.61531   1.62043   1.62975
 Alpha virt. eigenvalues --    1.64505   1.65912   1.67469   1.68528   1.69485
 Alpha virt. eigenvalues --    1.71096   1.71291   1.72022   1.72997   1.73759
 Alpha virt. eigenvalues --    1.73881   1.74337   1.74834   1.75586   1.75882
 Alpha virt. eigenvalues --    1.76263   1.76370   1.76858   1.77324   1.77835
 Alpha virt. eigenvalues --    1.78099   1.79092   1.79607   1.80177   1.80428
 Alpha virt. eigenvalues --    1.80638   1.81171   1.81382   1.81659   1.81893
 Alpha virt. eigenvalues --    1.82197   1.82462   1.82597   1.82982   1.83377
 Alpha virt. eigenvalues --    1.83906   1.84025   1.84635   1.85129   1.85234
 Alpha virt. eigenvalues --    1.86178   1.86378   1.86466   1.87088   1.87615
 Alpha virt. eigenvalues --    1.88095   1.88666   1.89384   1.89539   1.90805
 Alpha virt. eigenvalues --    1.91386   1.92649   1.92987   1.93228   1.93580
 Alpha virt. eigenvalues --    1.94822   1.95107   1.95860   1.96833   1.97368
 Alpha virt. eigenvalues --    1.97793   1.98386   1.98847   1.99184   1.99854
 Alpha virt. eigenvalues --    2.00082   2.00827   2.02149   2.02745   2.03011
[...]
 588,0.00000946,0.00002009,-0.00000391,0.00000399,0.00000860,-0.0000472
 4,0.00000956,-0.00003766,-0.00002984,-0.00001824,-0.00006876,0.0000249
 6,-0.00002199,0.00000734,0.00000103,0.00000115,0.00000526,0.00003517,-
 0.00002210,0.00000124,0.00000007,-0.00000556,-0.00000241,0.00007232,-0
 .00002277,-0.00008082,0.00002888,-0.00002156,-0.00003863,0.00000512,-0
 .00004570,-0.00000355,-0.00000147,-0.00002349,0.00001604,-0.00001964,-
 0.00000107,0.00001061,0.00404952,0.00243273,-0.03968740,-0.00380454,-0
 .04215986,0.01120094,-0.06934435,-0.00041863,0.00749541,-0.00573397,-0
 .00394780,-0.00139520,0.00415960,0.00084717,0.00110220,-0.07010897,-0.
 01683799,0.00338604,-0.00582213,-0.00292861,-0.00450301,0.00397533,0.0
 0090442,0.00150139,0.00627885,-0.00408432,0.02768536,0.00101549,0.0001
 8923,0.00450415,0.01003561,0.02326966,-0.00749359,0.00087110,-0.002694
 96,0.00141257,0.00366106,0.00287413,0.00301670,0.12054311,-0.00000849,
 0.00043467,0.00016796,-0.00016135,-0.00017976,-0.00023626,0.00002713,-
 0.00006689,-0.00003551,0.00000399,-0.00001080,-0.00001287,0.00013497,-
 0.00012227,-0.00012000,-0.00006476,0.00013723,0.00003221,0.00016439,0.
 00049315,-0.00004217,-0.00002176,0.00001070,-0.00003590,0.00000166,0.0
 0001481,0.00000398,-0.00000718,0.00001177,0.00001090,0.00002442,-0.000
 00033,-0.00002890,-0.00005598,-0.00022975,0.00004034,0.00000953,0.0001
 5253,-0.00040789,-0.00017063,0.00043025,0.00029806,-0.00031944,-0.0008
 9174,0.00016505,0.00070721,0.00068384,-0.00015681,0.00011232,0.0003310
 4,-0.00065261,0.00014984,0.00036036,-0.00016694,0.00001380,-0.00001374
 ,0.00002631,-0.00002514,0.00002476,0.00001062,-0.00000837,0.00002004,-
 0.00003934,-0.00002294,0.00003076,0.00000100,0.00002804,0.00000310,-0.
 00002443,-0.00000087,-0.00000649,-0.00000933,-0.00000185,-0.00000404,-
 0.00000740,-0.00000602,-0.00000702,-0.00001167,0.00007391,-0.00007471,
 -0.00002552,0.00002249,-0.00000374,0.00000166,-0.00000103,0.00000445,-
 0.00000890,0.00000674,0.00002638,-0.00003689,0.00000768,-0.00000148,-0
 .00000585,-0.00000695,-0.00000691,-0.00000151,0.00004160,0.00003226,0.
 00000907,-0.00000686,-0.00007818,0.00006162,-0.00001250,0.00001237,-0.
 00002287,-0.00000261,-0.00000791,-0.00000050,-0.00005140,-0.00000774,0
 .00001821,-0.00000795,-0.00000326,0.00000980,-0.00004175,0.00003820,-0
 .00001042,0.00000528,-0.00002338,-0.00002568,0.00001452,-0.00000704,0.
 00002383,-0.00001747,-0.00002053,-0.00000818,0.00003096,0.00002334,0.0
 0000056,0.00009579,0.00297459,-0.00907386,-0.01412765,-0.03867429,0.01
 005845,-0.00415300,-0.09452879,0.01786839,-0.00152856,0.00080409,-0.00
 056035,-0.00035606,-0.00017741,0.00000575,-0.01841667,-0.22024587,0.00
 877730,-0.00484753,-0.00054098,-0.00334932,0.00046599,0.00205402,0.000
 18020,-0.00176120,0.00441273,-0.01287258,0.00018210,0.00040201,0.04114
 719,-0.00074095,-0.04111033,0.00863071,-0.00128062,-0.00921645,0.00637
 593,0.00416475,0.00287573,0.00299777,0.04169540,0.39011757,0.00104152,
 -0.00079988,-0.00283422,-0.00029511,-0.00031615,0.00090632,0.00008034,
 0.00039902,-0.00017143,0.00009591,0.00024091,-0.00024718,-0.00194140,-
 0.00017599,0.00049944,0.00086886,-0.00014248,-0.00002599,0.00044272,-0
 .00056316,-0.00175124,0.00004916,0.00005177,-0.00005248,0.00000497,-0.
 00001554,-0.00002093,0.00002625,-0.00001672,-0.00004156,0.00002906,0.0
 0005049,-0.00004410,-0.00019296,0.00036999,0.00063364,0.00004247,-0.00
 022131,-0.00014400,-0.00009435,0.00013577,0.00030504,0.00024776,-0.000
 43596,-0.00029666,0.00037456,0.00026237,0.00107488,-0.00017285,-0.0003
 2563,-0.00052371,0.00000113,-0.00009734,0.00012794,0.00000070,-0.00004
 647,-0.00003772,-0.00007754,0.00002929,0.00003781,-0.00000366,-0.00000
 749,-0.00002216,0.00000002,-0.00003790,-0.00001440,-0.00000057,-0.0000
 1609,-0.00000469,0.00000534,0.00001243,-0.00000156,0.00000506,0.000008
 41,-0.00000203,0.00000741,0.00001557,0.00000635,0.00000125,0.00009890,
 0.00013271,0.00003203,-0.00002778,-0.00000287,0.00000558,-0.00000093,0
 .00000579,-0.00003668,0.00005252,0.00004141,0.00001092,-0.00002311,-0.
 00000725,-0.00000011,-0.00000336,-0.00000835,-0.00000266,-0.00005284,-
 0.00004335,-0.00002653,0.00013034,0.00004112,0.00000284,-0.00000541,0.
 00000605,0.00000556,-0.00000661,-0.00000618,-0.00001971,0.00003396,-0.
 00000549,0.00001599,-0.00001110,-0.00000591,0.00002396,-0.00006856,-0.
 00009808,0.00000529,-0.00005138,-0.00006930,-0.00000154,-0.00002978,0.
 00001091,0.00000246,-0.00003506,0.00002628,-0.00001777,-0.00002946,0.0
 0002580,-0.00727810,0.00298305,-0.04587786,0.00059086,-0.00546785,0.00
 447456,0.00336092,-0.01901775,-0.21653289,-0.00577857,-0.00381826,0.00
 061893,0.00051502,0.00066594,0.00231481,0.00564012,0.04468563,-0.10214
 798,-0.00143549,-0.00036259,0.00084136,0.00021281,-0.00022829,-0.00002
 354,0.00362667,0.00056586,-0.03351717,0.00066707,0.00404161,-0.0184664
 2,-0.00249102,-0.00060307,0.00433951,0.00646740,0.04342751,-0.00946347
 ,0.00391885,0.00286373,0.00272142,-0.00874977,-0.06916162,0.41288485,-
 0.00001808,0.00004038,-0.00003235,0.00007907,-0.00001378,0.00005583,0.
 00000213,0.00000504,-0.00000871,0.00000320,-0.00000067,-0.00001392,0.0
 0001763,-0.00002178,0.00001878,-0.00002220,0.00002377,-0.00001225,-0.0
 0010120,0.00000809,-0.00005818,-0.00000074,0.00000118,-0.00000042,0.00
 000139,0.00000315,-0.00000367,0.00000061,0.00000005,0.00000207,-0.0000
 0143,0.00000066,-0.00000096,0.00013524,0.00059369,0.00005577,-0.039392
 34,0.03306082,0.03083620,0.00168104,0.00153713,0.00031833,0.00480718,0
 .00030575,0.00065883,-0.00047075,-0.00042326,-0.00000483,0.00779255,0.
 00067661,0.00082107,0.00028595,0.00013286,0.00003201,-0.00435102,-0.00
 060641,0.00008676,0.00025937,-0.00051610,0.00053601,0.00001867,0.00022
 975,-0.00002048,-0.00031454,0.00015187,0.00005901,0.00008065,-0.000059
 52,0.00010605,-0.00002150,-0.00001017,0.00002176,-0.00000526,-0.000008
 28,-0.00001137,0.00000724,-0.00000636,-0.00004183,0.00001938,0.0004743
 1,-0.00057259,0.00000540,-0.00040970,0.00003013,0.00003357,0.00028072,
 0.00011301,0.00025855,-0.00014521,-0.00012464,-0.00000555,0.00009878,-
 0.00000025,-0.00001185,-0.00001996,0.00003156,-0.00007344,0.00014862,-
 0.00007734,-0.00002676,-0.00004772,0.00004056,-0.00001592,-0.00003629,
 -0.00007889,0.00000094,-0.00001193,0.00000051,-0.00000494,-0.00000306,
 0.00001637,0.00000531,-0.00000625,0.00000834,0.00008193,-0.00009414,-0
 .00013358,-0.00181641,-0.00011371,-0.00034255,-0.00030307,0.00033481,0
 .00010051,-0.00015599,-0.00050244,-0.00009481,-0.00021461,-0.00003867,
 -0.00003648,0.00005203,-0.00002106,0.00002716,-0.00012485,-0.00005635,
 -0.00001581,-0.00004244,-0.00001734,0.00000386,-0.00000856,0.00002513,
 0.00002958,-0.00000134,0.00003390,-0.00004451,-0.00000674,0.00002341,-
 0.00007248,-0.00002044,0.00005257,0.00001396,-0.00001901,-0.00006529,0
 .00005546,-0.00000161,-0.00000239,-0.00000081,0.00000491,0.00001095,-0
 .00000076,-0.00000270,0.00000299,-0.00000054,-0.00000493,-0.00000574,0
 .00000402,-0.00037179,0.00024559,0.00001821,0.00002986,0.00004553,0.00
 003585,0.03146803,-0.00021625,-0.00000833,-0.00003332,0.00038782,0.000
 04558,-0.00000409,-0.00004780,-0.00000068,0.00002309,-0.00000651,-0.00
 000785,0.00002516,0.00014169,0.00000625,-0.00003618,-0.00007142,0.0000
 1791,-0.00000751,-0.00026268,-0.00044424,0.00042622,-0.00000043,0.0000
 0303,-0.00000085,-0.00000136,-0.00000628,0.00000631,-0.00000913,-0.000
 00244,0.00000587,-0.00000472,0.00000036,0.00000222,0.00368204,-0.01403
 842,-0.01929753,0.03260324,-0.21963920,-0.14496550,-0.00148604,0.00891
 944,0.00632025,0.00034619,0.00016508,0.00215069,-0.00007849,-0.0001772
 6,0.00073662,0.00070682,-0.00447874,0.00347305,0.00002575,0.00047691,0
 .00030844,-0.00033884,0.00037553,-0.00110603,0.00008020,-0.00010575,0.
 00027582,-0.00003794,-0.00001536,0.00017061,0.00005087,-0.00001391,-0.
 00012753,-0.00009291,0.00006013,-0.00005361,0.00000521,-0.00000899,-0.
 00000200,-0.00000689,-0.00000166,-0.00000800,-0.00000719,-0.00000350,-
 0.00000604,0.00026096,-0.00009431,0.00003774,-0.00001244,0.00014135,-0
 .00006693,0.00000917,0.00016936,-0.00003316,-0.00002226,-0.00008303,-0
 .00017160,-0.00004539,-0.00001593,0.00004044,-0.00002520,0.00000412,-0
 .00000223,-0.00005045,-0.00001535,-0.00001767,0.00003742,-0.00002436,-
 0.00000389,0.00003156,-0.00003733,0.00004823,0.00001799,-0.00001050,-0
 .00000283,0.00001332,-0.00000566,0.00001271,0.00000999,0.00000012,0.00
 000155,-0.00014101,0.00004903,0.00012461,-0.00022023,0.00061638,0.0001
 7571,0.00016809,0.00025470,-0.00011207,-0.00026427,0.00012818,-0.00016
 082,-0.00001347,-0.00004244,-0.00006483,0.00002983,-0.00003610,0.00006
 079,-0.00000983,-0.00002429,0.00003028,0.00001213,0.00002291,-0.000004
 34,-0.00000670,0.00003951,0.00000313,-0.00000307,0.00000801,-0.0000250
 2,-0.00001549,-0.00002141,-0.00001246,0.00000237,0.00001968,-0.0000116
 1,-0.00000310,0.00000214,-0.00000206,0.00000157,-0.00000068,0.00000224
 ,0.00000327,0.00000180,0.00000127,0.00000204,0.00000251,0.00000164,-0.
 00000013,0.00000101,0.00000034,-0.00010876,0.00024472,-0.00002818,-0.0
 0000338,0.00001263,-0.00002386,-0.03524182,0.22701587,0.00006123,0.000
 02400,0.00000548,-0.00011242,-0.00002499,0.00001937,0.00001627,0.00000
 093,-0.00001333,0.00000338,0.00000422,-0.00000944,-0.00004043,-0.00000
 802,0.00001384,0.00001843,0.00000187,0.00000075,0.00007329,0.00015530,
 -0.00015373,-0.00000034,-0.00000080,0.00000040,-0.00000015,0.00000217,
 -0.00000245,0.00000119,-0.00000189,-0.00000036,0.00000142,0.00000065,-
 0.00000045,-0.00181999,0.00929651,0.00945107,0.02986040,-0.14735800,-0
 .18438289,0.00365916,-0.02141459,-0.01251948,0.00069141,0.00254488,-0.
 00396058,-0.00001276,0.00091195,-0.00114510,0.00076718,0.00360015,0.00
 031763,0.00010794,-0.00103402,-0.00055952,-0.00068184,0.00064064,0.000
 27723,0.00010356,-0.00008217,0.00008891,-0.00005962,-0.00005919,-0.000
 04817,0.00001008,0.00001233,-0.00005011,-0.00002197,0.00001800,-0.0000
 0139,0.00000660,0.00000764,0.00001247,0.00000221,0.00000337,0.00000162
 ,-0.00000476,-0.00001053,-0.00000334,-0.00004577,-0.00000213,0.0002097
 4,0.00045231,0.00021096,-0.00014050,-0.00002877,0.00009651,0.00002169,
 -0.00003440,-0.00000377,-0.00009969,0.00000180,-0.00002886,0.00005187,
 0.00000452,-0.00001836,-0.00005641,-0.00008466,0.00002506,-0.00004694,
 0.00000276,-0.00001581,-0.00000069,0.00000078,-0.00004464,-0.00003941,
 0.00000022,-0.00000090,0.00000450,0.00000423,0.00000023,-0.00000187,-0
 .00000585,-0.00000442,-0.00000259,0.00005049,0.00001035,-0.00006281,-0
 .00029245,-0.00128317,0.00142386,-0.00019792,0.00028640,-0.00021047,0.
 00015331,0.00028529,-0.00019442,-0.00004111,0.00001182,0.00022356,0.00
 002417,0.00001480,-0.00004571,0.00002030,0.00006351,-0.00006699,-0.000
 00610,-0.00001459,-0.00001691,-0.00000224,-0.00001002,0.00000147,-0.00
 000355,-0.00001053,0.00000446,0.00003354,0.00002819,0.00002793,-0.0000
 2932,-0.00004096,0.00006992,-0.00001044,-0.00004351,0.00002384,-0.0000
 0059,0.00000256,0.00000018,-0.00000275,-0.00000159,-0.00000039,0.00000
 117,0.00000107,-0.00000044,-0.00000028,-0.00000242,-0.00000011,-0.0000
 9237,-0.00009131,0.00029385,-0.00001890,-0.00003265,0.00002360,-0.0324
 7393,0.15335231,0.19059412,0.00227914,0.00099760,0.00031065,-0.0042642
 2,-0.01031972,0.00980846,-0.00050961,0.00004177,-0.00055431,0.00013730
 ,0.00003760,-0.00035605,-0.00294762,0.00022335,0.00025173,0.00139915,-
 0.00012459,0.00019124,-0.01498710,0.00680812,-0.00643381,0.00002130,0.
 00005371,-0.00003713,0.00002782,0.00005616,-0.00010036,-0.00003072,0.0
 0000824,-0.00009383,0.00001546,0.00006801,-0.00006764,0.00107059,0.003
 71191,-0.00221895,0.00448065,0.00120747,0.00103243,-0.00081937,-0.0001
 7385,0.00038625,0.00482325,0.00022083,0.00041066,0.00010870,-0.0021383
 3,0.00025183,-0.03813972,0.00685796,0.00191379,0.00009063,-0.00001830,
 0.00004886,-0.00295271,0.00043721,-0.00040628,-0.00001402,-0.00000844,
 0.00053524,-0.00028993,0.00019725,0.00001361,-0.00030723,0.00022473,0.
 00028874,0.00010769,-0.00007163,-0.00002972,0.00000153,-0.00000599,0.0
 0002767,-0.00002127,-0.00000153,0.00001682,0.00000981,0.00002677,-0.00
 004759,0.00294717,-0.00132388,-0.00306315,0.00003780,-0.00011147,0.000
 02192,-0.00001655,-0.00001058,-0.00000617,-0.00006846,0.00011173,0.000
 13063,0.00001179,-0.00002738,-0.00002399,0.00000687,-0.00001600,-0.000
 01832,0.00002382,-0.00009466,-0.00008995,-0.00018121,0.00032987,0.0000
 6227,0.00001305,0.00000019,0.00001422,0.00000458,-0.00000334,-0.000006
 11,-0.00001010,0.00001575,-0.00000186,0.00001056,-0.00001469,-0.000005
 24,-0.00161675,0.00073631,0.00204393,-0.00054821,-0.00002351,-0.000074
 01,-0.00002708,0.00010530,0.00005948,0.00001152,-0.00009895,-0.0000831
 5,-0.00000154,0.00001344,0.00000129,-0.00085934,0.00032462,-0.00008909
 ,-0.00064461,-0.00001403,0.00007600,0.00028457,-0.00018117,-0.00011481
 ,0.00219715,0.00006083,-0.00010381,-0.00000544,0.00010601,0.00010278,0
 .00012494,0.00001469,-0.00026899,0.00002913,-0.00002148,0.00004306,0.0
 0000122,-0.00002069,0.00017169,-0.00016067,0.00002796,-0.00012781,-0.0
 0006888,-0.00002237,-0.00004187,-0.00002275,0.00001510,-0.00000695,-0.
 00005995,-0.00003035,0.00000282,-0.00136298,-0.00022442,-0.00043993,-0
 .00013985,0.00000548,0.00015166,0.00080016,0.00022608,-0.00000765,0.05
 000054,0.01926657,-0.00266195,0.00536051,-0.04889344,-0.00192528,-0.00
 075496,0.00516507,0.00065024,-0.00181582,0.00045839,0.00078684,-0.0018
 1697,-0.01137344,-0.00187339,0.00364007,0.00690710,-0.00077773,0.00130
 745,0.02657186,0.02425879,-0.02723122,0.00002171,-0.00008226,0.0001657
 7,0.00008324,0.00005590,0.00009376,0.00057867,-0.00008511,-0.00010881,
 0.00060272,0.00011968,-0.00006860,0.00327763,-0.02794977,-0.00771031,0
 .00022952,0.00631378,-0.00445279,-0.00018480,-0.00073112,0.00407952,0.
 00045781,-0.00100658,-0.00606408,-0.00322882,0.02338133,0.02036573,0.0
 0705342,-0.20733005,0.05349246,-0.00007260,0.00169841,-0.00061458,-0.0
 0039450,0.00114123,0.00081292,0.00089208,-0.00061916,0.00031714,-0.000
 16859,-0.00023175,0.00045284,0.00018973,-0.00047939,0.00006965,-0.0003
 8739,-0.00007543,0.00044587,-0.00001726,0.00002043,0.00019047,0.000021
 28,0.00004721,0.00004924,0.00007191,0.00004846,0.00017872,-0.00084537,
 0.00147272,-0.00054306,0.00011563,0.00002417,0.00009191,-0.00004378,-0
 .00006993,-0.00013191,-0.00026928,-0.00023036,0.00022648,-0.00008338,-
 0.00001835,-0.00003322,0.00004176,0.00000582,-0.00002313,-0.00004266,-
 0.00019950,0.00002192,0.00028453,0.00082305,-0.00023572,-0.00000126,0.
 00007320,0.00004184,-0.00001002,0.00002034,-0.00001057,0.00001527,0.00
 005879,-0.00005205,0.00002062,0.00001783,-0.00002488,0.00041290,-0.000
 82555,0.00024094,-0.00026309,0.00086204,0.00046877,0.00005292,0.000312
 39,-0.00031394,0.00000386,0.00028268,-0.00031162,0.00000135,0.00016921
 ,-0.00017867,-0.00014058,0.00341066,-0.00186376,-0.00084755,-0.0013779
 3,0.00203271,-0.00008246,-0.00106443,0.00043479,0.00036106,-0.00588562
 ,-0.00923604,0.00002646,-0.00076816,0.00069267,0.00091762,0.00141179,-
 0.00080733,0.00000755,0.00003063,0.00018709,0.00015333,-0.00015171,-0.
 00077059,-0.00007826,0.00022791,-0.00018250,-0.00026958,-0.00029052,-0
 .00030259,-0.00001312,-0.00005993,0.00003869,-0.00030619,-0.00028636,-
 0.00016064,0.00191281,-0.00784335,-0.00654992,0.00005445,-0.00066755,0
 .00112173,-0.00004274,0.00055975,0.00003018,-0.00817068,0.19728296,-0.
 01381489,0.00073162,-0.00475113,0.03705790,0.00318244,0.00236874,-0.00
 274555,0.00081468,0.00186078,-0.00019291,-0.00006234,0.00121146,0.0082
 7890,0.00124752,-0.00328075,-0.00498958,0.00060399,-0.00092206,-0.0207
 2283,-0.02523139,0.00364336,0.00000598,0.00020547,-0.00031375,-0.00022
 627,-0.00014472,0.00013641,-0.00041384,0.00004963,0.00005021,-0.000323
 93,-0.00009096,0.00003094,-0.00139260,-0.01659533,0.02150668,0.0014581
 5,-0.00772893,-0.00162482,0.00013704,0.00012465,-0.00390229,0.00073070
 ,0.00064370,-0.00139182,0.00037809,0.01568461,-0.01467037,0.00169994,0
 .05716102,-0.09384193,0.00000333,0.00018033,0.00022202,-0.00029754,-0.
 00159502,-0.00003788,0.00030187,0.00045466,-0.00068292,0.00017476,-0.0
 0001974,0.00020268,-0.00003927,0.00064318,-0.00026796,-0.00013842,0.00
 012532,-0.00007036,-0.00001750,-0.00002975,-0.00007358,-0.00004517,-0.
 00002482,0.00000057,-0.00005950,-0.00008578,-0.00009636,0.00093262,-0.
 00259363,-0.00300941,-0.00003920,-0.00011136,0.00003256,-0.00004691,0.
 00007404,-0.00001671,0.00008900,0.00019350,-0.00017788,0.00003141,0.00
 002163,0.00002289,-0.00001689,-0.00002166,0.00001959,0.00003264,0.0001
 6902,-0.00000722,-0.00007189,-0.00065008,0.00019036,-0.00005141,-0.000
 01901,-0.00005662,-0.00001061,0.00000064,0.00000525,-0.00003456,-0.000
 02896,0.00001943,-0.00002441,-0.00000489,0.00001567,-0.00106390,0.0008
 4566,0.00072490,0.00006188,-0.00048105,-0.00014352,-0.00004791,-0.0001
 3998,0.00019861,0.00000431,-0.00014339,0.00017641,-0.00000748,-0.00014
 736,0.00014387,0.00021008,-0.00128148,-0.00185247,0.00022805,0.0003885
 9,-0.00172580,-0.00121049,-0.00001647,-0.00028193,-0.00003625,-0.00521
 520,-0.00014117,0.00004350,0.00042588,0.00063308,-0.00051782,-0.000242
 94,0.00027715,-0.00000790,-0.00006121,0.00015241,-0.00005918,0.0001111
 9,0.00051135,0.00017281,-0.00010583,0.00018236,0.00018589,0.00025071,0
 .00016440,0.00003725,-0.00003294,-0.00003063,0.00018288,0.00013322,0.0
 0014960,-0.00102601,0.00388458,0.00404335,0.00056349,0.00026188,0.0004
 1161,0.00014136,-0.00142558,0.00067334,-0.00345119,-0.02428158,0.09338
 928\\0.00003418,-0.00000224,0.00000379,-0.00000741,-0.00002311,-0.0000
 2589,0.00000045,0.00001047,0.00001566,0.00000756,-0.00001823,-0.000008
 38,-0.00004187,0.00001418,0.00001230,0.00001972,-0.00001117,0.00000965
 ,0.00000436,0.00000258,0.00003238,0.00000212,0.00000275,0.00000039,-0.
 00000044,-0.00000009,0.00000322,0.00000497,0.00000658,0.00000297,0.000
 00257,0.00000210,0.00000777,-0.00000983,-0.00000380,0.00000660,0.00000
 069,0.00000867,-0.00002882,-0.00000169,0.00001475,0.00001923,-0.000001
 61,-0.00002681,0.00000632,0.00000368,-0.00000945,-0.00004985,0.0000192
 3,-0.00000210,0.00003898,-0.00000344,0.00000130,-0.00000515,0.00003670
 ,-0.00001635,-0.00000713,-0.00001286,0.00000609,0.00000878,-0.00000855
 ,-0.00000078,-0.00000970,-0.00000866,0.00000798,0.00001390,0.00001430,
 0.00000057,-0.00000695,0.00000094,0.00000380,0.00000036,0.00000343,0.0
 0000377,0.00000002,0.00000415,0.00000469,-0.00000302,-0.00000635,-0.00
 002278,-0.00001910,-0.00001380,0.00001970,-0.00000072,0.00000182,0.000
 00473,0.00000596,-0.00000186,-0.00001240,0.00000361,0.00000500,-0.0000
 0449,-0.00000230,-0.00000016,-0.00000080,-0.00000024,-0.00000903,0.000
 01283,-0.00000038,0.00000332,0.00000065,-0.00000007,0.00000251,-0.0000
 0876,-0.00000666,-0.00000293,0.00000052,-0.00000215,-0.00000081,-0.000
 00287,0.00000072,-0.00000195,-0.00000022,0.00000149,0.00000600,0.00001
 598,0.00000636,-0.00000424,-0.00000554,-0.00000671,-0.00000410,-0.0000
 0231,-0.00000418,-0.00000508,0.00000092,-0.00000163,-0.00000181,-0.000
 00032,-0.00000170,0.00002755,0.00002406,-0.00001420,0.00002802,-0.0000
 1480,0.00002705,-0.00000648,0.00000017,-0.00001675,-0.00000413,-0.0000
 1058,-0.00000603,0.00000111,-0.00000119,0.00000365,0.00000091,0.000007
 72,-0.00000510,-0.00001161,0.00000041,-0.00000462,-0.00000228,0.000002
 42,0.00000035,0.00000558,-0.00000568,0.00000674,0.00000042,-0.00000150
 ,-0.00000031,-0.00000104,-0.00000040,0.00000294,-0.00000039,-0.0000083
 4,0.00000151,-0.00003637,-0.00000435,-0.00000449,-0.00001620,-0.000006
 27,0.00001113,0.00000338,-0.00000075,-0.00000094,-0.00001765,0.0000480
 9,-0.00001069\\\@
 The archive entry for this job was punched.


 IF YOU PERCEIVE THAT THERE ARE FOUR POSSIBLE WAYS IN
 WHICH A PROCEDURE CAN GO WRONG AND CIRCUMVENT THESE, 
 THEN A FIFTH WAY WILL DEVELOP.

                              -- MURPHY'S TWELFTH LAW
 Job cpu time:       0 days  5 hours 24 minutes 27.6 seconds.
 Elapsed time:       0 days  0 hours 13 minutes 52.3 seconds.
 File lengths (MBytes):  RWF=   2572 Int=      0 D2E=      0 Chk=     48 Scr=      1
 Normal termination of Gaussian 16 at Wed Feb 26 19:31:51 2025.
