 Entering Gaussian System, Link 0=g16
 Initial command:
 /opt/packages/gaussian/g16RevC.01/g16/l1.exe "/local/Gau-100848.inp" -scrdir="/local/"
 Entering Link 1 = /opt/packages/gaussian/g16RevC.01/g16/l1.exe PID=    100849.
  
 Copyright (c) 1988-2019, Gaussian, Inc.  All Rights Reserved.
  
 This is part of the Gaussian(R) 16 program.  It is based on
 the Gaussian(R) 09 system (copyright 2009, Gaussian, Inc.),
 the Gaussian(R) 03 system (copyright 2003, Gaussian, Inc.),
 the Gaussian(R) 98 system (copyright 1998, Gaussian, Inc.),
 the Gaussian(R) 94 system (copyright 1995, Gaussian, Inc.),
 the Gaussian 92(TM) system (copyright 1992, Gaussian, Inc.),
 the Gaussian 90(TM) system (copyright 1990, Gaussian, Inc.),
 the Gaussian 88(TM) system (copyright 1988, Gaussian, Inc.),
 the Gaussian 86(TM) system (copyright 1986, Carnegie Mellon
 University), and the Gaussian 82(TM) system (copyright 1983,
 Carnegie Mellon University). Gaussian is a federally registered
 trademark of Gaussian, Inc.
  
 This software contains proprietary and confidential information,
 including trade secrets, belonging to Gaussian, Inc.
  
 This software is provided under written license and may be
 used, copied, transmitted, or stored only in accord with that
 written license.
  
 The following legend is applicable only to US Government
 contracts under FAR:
  
                    RESTRICTED RIGHTS LEGEND
  
 Use, reproduction and disclosure by the US Government is
 subject to restrictions as set forth in subparagraphs (a)
 and (c) of the Commercial Computer Software - Restricted
 Rights clause in FAR 52.227-19.
  
 Gaussian, Inc.
 340 Quinnipiac St., Bldg. 40, Wallingford CT 06492
  
  
 ---------------------------------------------------------------
 Warning -- This program may not be used in any manner that
 competes with the business of Gaussian, Inc. or will provide
 assistance to any competitor of Gaussian, Inc.  The licensee
 of this program is prohibited from giving any competitor of
 Gaussian, Inc. access to this program.  By using this program,
 the user acknowledges that Gaussian, Inc. is engaged in the
 business of creating and licensing software in the field of
 computational chemistry and represents and warrants to the
 licensee that it is not a competitor of Gaussian, Inc. and that
 it will not use this program in any manner prohibited above.
 ---------------------------------------------------------------
  

 Cite this work as:
 Gaussian 16, Revision C.01,
 M. J. Frisch, G. W. Trucks, H. B. Schlegel, G. E. Scuseria, 
 M. A. Robb, J. R. Cheeseman, G. Scalmani, V. Barone, 
 G. A. Petersson, H. Nakatsuji, X. Li, M. Caricato, A. V. Marenich, 
 J. Bloino, B. G. Janesko, R. Gomperts, B. Mennucci, H. P. Hratchian, 
 J. V. Ortiz, A. F. Izmaylov, J. L. Sonnenberg, D. Williams-Young, 
 F. Ding, F. Lipparini, F. Egidi, J. Goings, B. Peng, A. Petrone, 
 T. Henderson, D. Ranasinghe, V. G. Zakrzewski, J. Gao, N. Rega, 
 G. Zheng, W. Liang, M. Hada, M. Ehara, K. Toyota, R. Fukuda, 
 J. Hasegawa, M. Ishida, T. Nakajima, Y. Honda, O. Kitao, H. Nakai, 
 T. Vreven, K. Throssell, J. A. Montgomery, Jr., J. E. Peralta, 
 F. Ogliaro, M. J. Bearpark, J. J. Heyd, E. N. Brothers, K. N. Kudin, 
 V. N. Staroverov, T. A. Keith, R. Kobayashi, J. Normand, 
 K. Raghavachari, A. P. Rendell, J. C. Burant, S. S. Iyengar, 
 J. Tomasi, M. Cossi, J. M. Millam, M. Klene, C. Adamo, R. Cammi, 
 J. W. Ochterski, R. L. Martin, K. Morokuma, O. Farkas, 
 J. B. Foresman, and D. J. Fox, Gaussian, Inc., Wallingford CT, 2019.
 
 ******************************************
 Gaussian 16:  ES64L-G16RevC.01  3-Jul-2019
                 3-Feb-2025 
 ******************************************
 %nprocshared=32
 Will use up to   32 processors via shared memory.
 %mem=54GB
 ----------------------------------------------------------------------
 #p m062x genecp opt freq nosymm scrf=(smd,solvent=propylethanoate) emp
 iricaldispersion=gd3 scf=(xqc,maxcycles=128)
 ----------------------------------------------------------------------
 1/18=20,19=15,26=3,38=1/1,3;
 2/9=110,12=2,15=1,17=6,18=5,40=1/2;
 3/5=7,11=2,16=1,17=8,25=1,30=1,70=32201,71=1,72=169,74=-55,124=31/1,2,3;
 4//1;
 5/5=2,7=128,8=3,13=1,38=5,53=169/2,8;
 6/7=2,8=2,9=2,10=2,28=1/1;
 7/30=1/1,2,3,16;
 1/18=20,19=15,26=3/3(2);
 2/9=110,15=1/2;
 99//99;
 2/9=110,15=1/2;
 3/5=7,6=1,11=2,16=1,17=8,25=1,30=1,70=32205,71=1,72=169,74=-55,82=7,124=31/1,2,3;
 4/5=5,16=3,69=1/1;
 5/5=2,7=128,8=3,13=1,38=5,53=169/2,8;
 7/30=1/1,2,3,16;
 1/18=20,19=15,26=3/3(-5);
 2/9=110,15=1/2;
 6/7=2,8=2,9=2,10=2,19=2,28=1/1;
 99/9=1/99;
 Leave Link    1 at Mon Feb  3 12:46:04 2025, MaxMem=  7247757312 cpu:               2.1 elap:               0.1
 (Enter /opt/packages/gaussian/g16RevC.01/g16/l101.exe)
 -------------------
 Title Card Required
 -------------------
 Symbolic Z-matrix:
 Charge =  0 Multiplicity = 1
 N                     0.45727  -5.83255  -4.41599 
 C                     1.31775  -5.47303  -3.48768 
 C                     0.6648   -4.88656  -2.25017 
 C                    -0.79948  -4.79635  -2.66445 
 C                    -0.84051  -5.5098   -4.01706 
 O                    -1.832    -5.75703  -4.6544 
 O                     2.56723  -5.62527  -3.61846 
 H                     0.83061  -5.57909  -1.4092 
 H                     1.13422  -3.92705  -1.98904 
 H                    -1.14251  -3.76195  -2.80682 
 H                    -1.49544  -5.2857   -1.97036 
 C                    -1.16448  -5.15494  -7.03727 
 C                    -2.05528  -5.27534  -8.0839 
 C                    -1.90157  -6.35123  -8.9866 
 C                    -0.84687  -7.2307   -8.8143 
 C                     0.0453   -7.05643  -7.72533 
 N                    -0.17349  -6.05516  -6.85552 
 H                    -0.68669  -8.02614  -9.53942 
 C                    -1.22266  -4.03536  -6.05734 
 C                    -0.09271  -3.25204  -5.73033 
 C                    -0.23376  -2.21201  -4.80645 
 C                    -2.56471  -2.729    -4.47242 
 C                    -1.45004  -1.94658  -4.18353 
 H                     0.63291  -1.58871  -4.59613 
 H                    -1.52802  -1.12543  -3.47012 
 H                    -3.52836  -2.54951  -3.99436 
 C                    -2.42465  -3.75053  -5.40128 
 C                     1.25953  -3.49248  -6.30913 
 C                     2.3598   -3.57982  -5.4443 
 C                     1.47093  -3.6197   -7.68948 
 C                     3.64148  -3.80837  -5.9468 
 H                     2.20207  -3.4889   -4.366 
 C                     2.75166  -3.84254  -8.19084 
 H                     0.6238   -3.53865  -8.37494 
 C                     3.84057  -3.94297  -7.32071 
 H                     4.484    -3.88575  -5.2565 
 H                     2.90257  -3.93311  -9.26824 
 H                     4.84243  -4.12197  -7.71563 
 F                    -3.48929  -4.52481  -5.65966 
 C                    -2.85733  -6.49783  -10.13352 
 H                    -3.88286  -6.62434  -9.75603 
 H                    -2.85141  -5.58902  -10.75301 
 H                    -2.60495  -7.35849  -10.76499 
 C                     1.29782  -9.17713  -8.06936 
 C                     2.26976  -7.41038  -6.70143 
 C                     2.61236  -9.25849  -8.82977 
 H                     0.45541  -9.43932  -8.71717 
 H                     1.32411  -9.90553  -7.23962 
 C                     3.5467   -7.5867   -7.51576 
 H                     2.16572  -6.35096  -6.43383 
 H                     2.32919  -8.00171  -5.7715 
 H                     2.57079  -8.58956  -9.71143 
 H                     2.78755  -10.28582  -9.1761 
 H                     3.53095  -6.87314  -8.36251 
 H                     4.42097  -7.3648   -6.88865 
 N                     1.12752  -7.84679  -7.50158 
 O                     3.68692  -8.90158  -7.9957 
 H                    -2.85337  -4.54448  -8.21344 
 H                     0.86007  -6.14981  -5.27485 
 
 Add virtual bond connecting atoms H59        and N17        Dist= 3.57D+00.
 Add virtual bond connecting atoms H59        and H50        Dist= 3.32D+00.
 ITRead=  0  0  0  0  0  0  0  0  0  0  0  0  0  0  0  0  0  0  0  0
 ITRead=  0  0  0  0  0  0  0  0  0  0  0  0  0  0  0  0  0  0  0  0
 ITRead=  0  0  0  0  0  0  0  0  0  0  0  0  0  0  0  0  0  0  0
 MicOpt= -1 -1 -1 -1 -1 -1 -1 -1 -1 -1 -1 -1 -1 -1 -1 -1 -1 -1 -1 -1
 MicOpt= -1 -1 -1 -1 -1 -1 -1 -1 -1 -1 -1 -1 -1 -1 -1 -1 -1 -1 -1 -1
 MicOpt= -1 -1 -1 -1 -1 -1 -1 -1 -1 -1 -1 -1 -1 -1 -1 -1 -1 -1 -1
 NAtoms=     59 NQM=       59 NQMF=       0 NMMI=      0 NMMIF=      0
                NMic=       0 NMicF=      0.
                    Isotopes and Nuclear Properties:
 (Nuclear quadrupole moments (NQMom) in fm**2, nuclear magnetic moments (NMagM)
  in nuclear magnetons)

  Atom         1           2           3           4           5           6           7           8           9          10
 IAtWgt=          14          12          12          12          12          16          16           1           1           1
 AtmWgt=  14.0030740  12.0000000  12.0000000  12.0000000  12.0000000  15.9949146  15.9949146   1.0078250   1.0078250   1.0078250
 NucSpn=           2           0           0           0           0           0           0           1           1           1
 AtZEff=   0.0000000   0.0000000   0.0000000   0.0000000   0.0000000   0.0000000   0.0000000   0.0000000   0.0000000   0.0000000
 NQMom=    2.0440000   0.0000000   0.0000000   0.0000000   0.0000000   0.0000000   0.0000000   0.0000000   0.0000000   0.0000000
 NMagM=    0.4037610   0.0000000   0.0000000   0.0000000   0.0000000   0.0000000   0.0000000   2.7928460   2.7928460   2.7928460
 AtZNuc=   7.0000000   6.0000000   6.0000000   6.0000000   6.0000000   8.0000000   8.0000000   1.0000000   1.0000000   1.0000000

  Atom        11          12          13          14          15          16          17          18          19          20
 IAtWgt=           1          12          12          12          12          12          14           1          12          12
 AtmWgt=   1.0078250  12.0000000  12.0000000  12.0000000  12.0000000  12.0000000  14.0030740   1.0078250  12.0000000  12.0000000
 NucSpn=           1           0           0           0           0           0           2           1           0           0
 AtZEff=   0.0000000   0.0000000   0.0000000   0.0000000   0.0000000   0.0000000   0.0000000   0.0000000   0.0000000   0.0000000
 NQMom=    0.0000000   0.0000000   0.0000000   0.0000000   0.0000000   0.0000000   2.0440000   0.0000000   0.0000000   0.0000000
 NMagM=    2.7928460   0.0000000   0.0000000   0.0000000   0.0000000   0.0000000   0.4037610   2.7928460   0.0000000   0.0000000
 AtZNuc=   1.0000000   6.0000000   6.0000000   6.0000000   6.0000000   6.0000000   7.0000000   1.0000000   6.0000000   6.0000000

  Atom        21          22          23          24          25          26          27          28          29          30
 IAtWgt=          12          12          12           1           1           1          12          12          12          12
 AtmWgt=  12.0000000  12.0000000  12.0000000   1.0078250   1.0078250   1.0078250  12.0000000  12.0000000  12.0000000  12.0000000
 NucSpn=           0           0           0           1           1           1           0           0           0           0
 AtZEff=   0.0000000   0.0000000   0.0000000   0.0000000   0.0000000   0.0000000   0.0000000   0.0000000   0.0000000   0.0000000
 NQMom=    0.0000000   0.0000000   0.0000000   0.0000000   0.0000000   0.0000000   0.0000000   0.0000000   0.0000000   0.0000000
 NMagM=    0.0000000   0.0000000   0.0000000   2.7928460   2.7928460   2.7928460   0.0000000   0.0000000   0.0000000   0.0000000
 AtZNuc=   6.0000000   6.0000000   6.0000000   1.0000000   1.0000000   1.0000000   6.0000000   6.0000000   6.0000000   6.0000000

  Atom        31          32          33          34          35          36          37          38          39          40
 IAtWgt=          12           1          12           1          12           1           1           1          19          12
 AtmWgt=  12.0000000   1.0078250  12.0000000   1.0078250  12.0000000   1.0078250   1.0078250   1.0078250  18.9984032  12.0000000
 NucSpn=           0           1           0           1           0           1           1           1           1           0
 AtZEff=   0.0000000   0.0000000   0.0000000   0.0000000   0.0000000   0.0000000   0.0000000   0.0000000   0.0000000   0.0000000
 NQMom=    0.0000000   0.0000000   0.0000000   0.0000000   0.0000000   0.0000000   0.0000000   0.0000000   0.0000000   0.0000000
 NMagM=    0.0000000   2.7928460   0.0000000   2.7928460   0.0000000   2.7928460   2.7928460   2.7928460   2.6288670   0.0000000
 AtZNuc=   6.0000000   1.0000000   6.0000000   1.0000000   6.0000000   1.0000000   1.0000000   1.0000000   9.0000000   6.0000000

  Atom        41          42          43          44          45          46          47          48          49          50
 IAtWgt=           1           1           1          12          12          12           1           1          12           1
 AtmWgt=   1.0078250   1.0078250   1.0078250  12.0000000  12.0000000  12.0000000   1.0078250   1.0078250  12.0000000   1.0078250
 NucSpn=           1           1           1           0           0           0           1           1           0           1
 AtZEff=   0.0000000   0.0000000   0.0000000   0.0000000   0.0000000   0.0000000   0.0000000   0.0000000   0.0000000   0.0000000
 NQMom=    0.0000000   0.0000000   0.0000000   0.0000000   0.0000000   0.0000000   0.0000000   0.0000000   0.0000000   0.0000000
 NMagM=    2.7928460   2.7928460   2.7928460   0.0000000   0.0000000   0.0000000   2.7928460   2.7928460   0.0000000   2.7928460
 AtZNuc=   1.0000000   1.0000000   1.0000000   6.0000000   6.0000000   6.0000000   1.0000000   1.0000000   6.0000000   1.0000000

  Atom        51          52          53          54          55          56          57          58          59
 IAtWgt=           1           1           1           1           1          14          16           1           1
 AtmWgt=   1.0078250   1.0078250   1.0078250   1.0078250   1.0078250  14.0030740  15.9949146   1.0078250   1.0078250
 NucSpn=           1           1           1           1           1           2           0           1           1
 AtZEff=   0.0000000   0.0000000   0.0000000   0.0000000   0.0000000   0.0000000   0.0000000   0.0000000   0.0000000
 NQMom=    0.0000000   0.0000000   0.0000000   0.0000000   0.0000000   2.0440000   0.0000000   0.0000000   0.0000000
 NMagM=    2.7928460   2.7928460   2.7928460   2.7928460   2.7928460   0.4037610   0.0000000   2.7928460   2.7928460
 AtZNuc=   1.0000000   1.0000000   1.0000000   1.0000000   1.0000000   7.0000000   8.0000000   1.0000000   1.0000000
 Leave Link  101 at Mon Feb  3 12:46:04 2025, MaxMem=  7247757312 cpu:               6.3 elap:               0.2
 (Enter /opt/packages/gaussian/g16RevC.01/g16/l103.exe)

 GradGradGradGradGradGradGradGradGradGradGradGradGradGradGradGradGradGrad
 Berny optimization.
 Initialization pass.
                           ----------------------------
                           !    Initial Parameters    !
                           ! (Angstroms and Degrees)  !
 --------------------------                            --------------------------
 ! Name  Definition              Value          Derivative Info.                !
 --------------------------------------------------------------------------------
 ! R1    R(1,2)                  1.3158         estimate D2E/DX2                !
 ! R2    R(1,5)                  1.3955         estimate D2E/DX2                !
 ! R3    R(1,59)                 1.0003         estimate D2E/DX2                !
 ! R4    R(2,3)                  1.5171         estimate D2E/DX2                !
 ! R5    R(2,7)                  1.2655         estimate D2E/DX2                !
 ! R6    R(3,4)                  1.5244         estimate D2E/DX2                !
 ! R7    R(3,8)                  1.102          estimate D2E/DX2                !
 ! R8    R(3,9)                  1.0996         estimate D2E/DX2                !
 ! R9    R(4,5)                  1.5298         estimate D2E/DX2                !
 ! R10   R(4,10)                 1.0991         estimate D2E/DX2                !
 ! R11   R(4,11)                 1.098          estimate D2E/DX2                !
 ! R12   R(5,6)                  1.2043         estimate D2E/DX2                !
 ! R13   R(12,13)                1.3797         estimate D2E/DX2                !
 ! R14   R(12,17)                1.3511         estimate D2E/DX2                !
 ! R15   R(12,19)                1.489          estimate D2E/DX2                !
 ! R16   R(13,14)                1.4128         estimate D2E/DX2                !
 ! R17   R(13,58)                1.0899         estimate D2E/DX2                !
 ! R18   R(14,15)                1.384          estimate D2E/DX2                !
 ! R19   R(14,40)                1.5001         estimate D2E/DX2                !
 ! R20   R(15,16)                1.4185         estimate D2E/DX2                !
 ! R21   R(15,18)                1.0882         estimate D2E/DX2                !
 ! R22   R(16,17)                1.3442         estimate D2E/DX2                !
 ! R23   R(16,56)                1.3586         estimate D2E/DX2                !
 ! R24   R(17,59)                1.891          estimate D2E/DX2                !
 ! R25   R(19,20)                1.4133         estimate D2E/DX2                !
 ! R26   R(19,27)                1.3987         estimate D2E/DX2                !
 ! R27   R(20,21)                1.3982         estimate D2E/DX2                !
 ! R28   R(20,28)                1.4904         estimate D2E/DX2                !
 ! R29   R(21,23)                1.3921         estimate D2E/DX2                !
 ! R30   R(21,24)                1.0881         estimate D2E/DX2                !
 ! R31   R(22,23)                1.3922         estimate D2E/DX2                !
 ! R32   R(22,26)                1.0906         estimate D2E/DX2                !
 ! R33   R(22,27)                1.3878         estimate D2E/DX2                !
 ! R34   R(23,25)                1.0906         estimate D2E/DX2                !
 ! R35   R(27,39)                1.3415         estimate D2E/DX2                !
 ! R36   R(28,29)                1.4022         estimate D2E/DX2                !
 ! R37   R(28,30)                1.4022         estimate D2E/DX2                !
 ! R38   R(29,31)                1.3955         estimate D2E/DX2                !
 ! R39   R(29,32)                1.0936         estimate D2E/DX2                !
 ! R40   R(30,33)                1.3933         estimate D2E/DX2                !
 ! R41   R(30,34)                1.0927         estimate D2E/DX2                !
 ! R42   R(31,35)                1.3948         estimate D2E/DX2                !
 ! R43   R(31,36)                1.0919         estimate D2E/DX2                !
 ! R44   R(33,35)                1.3975         estimate D2E/DX2                !
 ! R45   R(33,37)                1.0917         estimate D2E/DX2                !
 ! R46   R(35,38)                1.0917         estimate D2E/DX2                !
 ! R47   R(40,41)                1.1001         estimate D2E/DX2                !
 ! R48   R(40,42)                1.0999         estimate D2E/DX2                !
 ! R49   R(40,43)                1.0969         estimate D2E/DX2                !
 ! R50   R(44,46)                1.5208         estimate D2E/DX2                !
 ! R51   R(44,47)                1.0946         estimate D2E/DX2                !
 ! R52   R(44,48)                1.1044         estimate D2E/DX2                !
 ! R53   R(44,56)                1.4564         estimate D2E/DX2                !
 ! R54   R(45,49)                1.5247         estimate D2E/DX2                !
 ! R55   R(45,50)                1.0976         estimate D2E/DX2                !
 ! R56   R(45,51)                1.1036         estimate D2E/DX2                !
 ! R57   R(45,56)                1.4613         estimate D2E/DX2                !
 ! R58   R(46,52)                1.1075         estimate D2E/DX2                !
 ! R59   R(46,53)                1.0982         estimate D2E/DX2                !
 ! R60   R(46,57)                1.4063         estimate D2E/DX2                !
 ! R61   R(49,54)                1.1074         estimate D2E/DX2                !
 ! R62   R(49,55)                1.0986         estimate D2E/DX2                !
 ! R63   R(49,57)                1.4067         estimate D2E/DX2                !
 ! R64   R(50,59)                1.7574         estimate D2E/DX2                !
 ! A1    A(2,1,5)              110.0765         estimate D2E/DX2                !
 ! A2    A(2,1,59)             115.4088         estimate D2E/DX2                !
 ! A3    A(5,1,59)             133.89           estimate D2E/DX2                !
 ! A4    A(1,2,3)              113.5545         estimate D2E/DX2                !
 ! A5    A(1,2,7)              122.676          estimate D2E/DX2                !
 ! A6    A(3,2,7)              123.7617         estimate D2E/DX2                !
 ! A7    A(2,3,4)              102.3927         estimate D2E/DX2                !
 ! A8    A(2,3,8)              108.3485         estimate D2E/DX2                !
 ! A9    A(2,3,9)              110.3208         estimate D2E/DX2                !
 ! A10   A(4,3,8)              112.8998         estimate D2E/DX2                !
 ! A11   A(4,3,9)              115.0212         estimate D2E/DX2                !
 ! A12   A(8,3,9)              107.6316         estimate D2E/DX2                !
 ! A13   A(3,4,5)              103.7949         estimate D2E/DX2                !
 ! A14   A(3,4,10)             112.9976         estimate D2E/DX2                !
 ! A15   A(3,4,11)             114.2473         estimate D2E/DX2                !
 ! A16   A(5,4,10)             108.4229         estimate D2E/DX2                !
 ! A17   A(5,4,11)             109.5169         estimate D2E/DX2                !
 ! A18   A(10,4,11)            107.6688         estimate D2E/DX2                !
 ! A19   A(1,5,4)              109.6133         estimate D2E/DX2                !
 ! A20   A(1,5,6)              124.5309         estimate D2E/DX2                !
 ! A21   A(4,5,6)              125.8551         estimate D2E/DX2                !
 ! A22   A(13,12,17)           121.1631         estimate D2E/DX2                !
 ! A23   A(13,12,19)           122.6596         estimate D2E/DX2                !
 ! A24   A(17,12,19)           116.1747         estimate D2E/DX2                !
 ! A25   A(12,13,14)           118.7455         estimate D2E/DX2                !
 ! A26   A(12,13,58)           120.2941         estimate D2E/DX2                !
 ! A27   A(14,13,58)           120.9566         estimate D2E/DX2                !
 ! A28   A(13,14,15)           119.1617         estimate D2E/DX2                !
 ! A29   A(13,14,40)           119.5776         estimate D2E/DX2                !
 ! A30   A(15,14,40)           121.2376         estimate D2E/DX2                !
 ! A31   A(14,15,16)           119.7876         estimate D2E/DX2                !
 ! A32   A(14,15,18)           119.585          estimate D2E/DX2                !
 ! A33   A(16,15,18)           120.5813         estimate D2E/DX2                !
 ! A34   A(15,16,17)           119.0698         estimate D2E/DX2                !
 ! A35   A(15,16,56)           123.7753         estimate D2E/DX2                !
 ! A36   A(17,16,56)           117.1547         estimate D2E/DX2                !
 ! A37   A(12,17,16)           121.9129         estimate D2E/DX2                !
 ! A38   A(12,17,59)           123.1406         estimate D2E/DX2                !
 ! A39   A(16,17,59)           114.4963         estimate D2E/DX2                !
 ! A40   A(12,19,20)           122.5335         estimate D2E/DX2                !
 ! A41   A(12,19,27)           119.6956         estimate D2E/DX2                !
 ! A42   A(20,19,27)           117.7546         estimate D2E/DX2                !
 ! A43   A(19,20,21)           118.9797         estimate D2E/DX2                !
 ! A44   A(19,20,28)           123.1014         estimate D2E/DX2                !
 ! A45   A(21,20,28)           117.9121         estimate D2E/DX2                !
 ! A46   A(20,21,23)           121.7108         estimate D2E/DX2                !
 ! A47   A(20,21,24)           118.2597         estimate D2E/DX2                !
 ! A48   A(23,21,24)           120.0149         estimate D2E/DX2                !
 ! A49   A(23,22,26)           121.602          estimate D2E/DX2                !
 ! A50   A(23,22,27)           118.1495         estimate D2E/DX2                !
 ! A51   A(26,22,27)           120.247          estimate D2E/DX2                !
 ! A52   A(21,23,22)           119.9704         estimate D2E/DX2                !
 ! A53   A(21,23,25)           119.9187         estimate D2E/DX2                !
 ! A54   A(22,23,25)           120.1109         estimate D2E/DX2                !
 ! A55   A(19,27,22)           123.407          estimate D2E/DX2                !
 ! A56   A(19,27,39)           118.3021         estimate D2E/DX2                !
 ! A57   A(22,27,39)           118.2715         estimate D2E/DX2                !
 ! A58   A(20,28,29)           118.8454         estimate D2E/DX2                !
 ! A59   A(20,28,30)           122.2566         estimate D2E/DX2                !
 ! A60   A(29,28,30)           118.8942         estimate D2E/DX2                !
 ! A61   A(28,29,31)           120.5828         estimate D2E/DX2                !
 ! A62   A(28,29,32)           119.3277         estimate D2E/DX2                !
 ! A63   A(31,29,32)           120.0759         estimate D2E/DX2                !
 ! A64   A(28,30,33)           120.4853         estimate D2E/DX2                !
 ! A65   A(28,30,34)           119.5969         estimate D2E/DX2                !
 ! A66   A(33,30,34)           119.9172         estimate D2E/DX2                !
 ! A67   A(29,31,35)           120.1062         estimate D2E/DX2                !
 ! A68   A(29,31,36)           119.5125         estimate D2E/DX2                !
 ! A69   A(35,31,36)           120.3806         estimate D2E/DX2                !
 ! A70   A(30,33,35)           120.2443         estimate D2E/DX2                !
 ! A71   A(30,33,37)           119.7008         estimate D2E/DX2                !
 ! A72   A(35,33,37)           120.054          estimate D2E/DX2                !
 ! A73   A(31,35,33)           119.6808         estimate D2E/DX2                !
 ! A74   A(31,35,38)           120.2104         estimate D2E/DX2                !
 ! A75   A(33,35,38)           120.1083         estimate D2E/DX2                !
 ! A76   A(14,40,41)           110.0487         estimate D2E/DX2                !
 ! A77   A(14,40,42)           110.2693         estimate D2E/DX2                !
 ! A78   A(14,40,43)           111.7291         estimate D2E/DX2                !
 ! A79   A(41,40,42)           107.0567         estimate D2E/DX2                !
 ! A80   A(41,40,43)           108.7719         estimate D2E/DX2                !
 ! A81   A(42,40,43)           108.8353         estimate D2E/DX2                !
 ! A82   A(46,44,47)           110.8862         estimate D2E/DX2                !
 ! A83   A(46,44,48)           108.6505         estimate D2E/DX2                !
 ! A84   A(46,44,56)           110.1733         estimate D2E/DX2                !
 ! A85   A(47,44,48)           107.7575         estimate D2E/DX2                !
 ! A86   A(47,44,56)           111.0715         estimate D2E/DX2                !
 ! A87   A(48,44,56)           108.1996         estimate D2E/DX2                !
 ! A88   A(49,45,50)           108.7357         estimate D2E/DX2                !
 ! A89   A(49,45,51)           110.058          estimate D2E/DX2                !
 ! A90   A(49,45,56)           109.126          estimate D2E/DX2                !
 ! A91   A(50,45,51)           108.4715         estimate D2E/DX2                !
 ! A92   A(50,45,56)           110.3437         estimate D2E/DX2                !
 ! A93   A(51,45,56)           110.0877         estimate D2E/DX2                !
 ! A94   A(44,46,52)           109.4687         estimate D2E/DX2                !
 ! A95   A(44,46,53)           110.2195         estimate D2E/DX2                !
 ! A96   A(44,46,57)           110.5079         estimate D2E/DX2                !
 ! A97   A(52,46,53)           108.6602         estimate D2E/DX2                !
 ! A98   A(52,46,57)           110.3371         estimate D2E/DX2                !
 ! A99   A(53,46,57)           107.6114         estimate D2E/DX2                !
 ! A100  A(45,49,54)           108.781          estimate D2E/DX2                !
 ! A101  A(45,49,55)           109.7709         estimate D2E/DX2                !
 ! A102  A(45,49,57)           111.9488         estimate D2E/DX2                !
 ! A103  A(54,49,55)           108.5202         estimate D2E/DX2                !
 ! A104  A(54,49,57)           110.0488         estimate D2E/DX2                !
 ! A105  A(55,49,57)           107.7111         estimate D2E/DX2                !
 ! A106  A(45,50,59)           109.979          estimate D2E/DX2                !
 ! A107  A(16,56,44)           124.0767         estimate D2E/DX2                !
 ! A108  A(16,56,45)           122.62           estimate D2E/DX2                !
 ! A109  A(44,56,45)           113.2569         estimate D2E/DX2                !
 ! A110  A(46,57,49)           111.3089         estimate D2E/DX2                !
 ! A111  A(1,59,17)            118.8002         estimate D2E/DX2                !
 ! A112  A(1,59,50)            154.387          estimate D2E/DX2                !
 ! A113  A(17,59,50)            81.9834         estimate D2E/DX2                !
 ! D1    D(5,1,2,3)              2.7528         estimate D2E/DX2                !
 ! D2    D(5,1,2,7)           -178.2277         estimate D2E/DX2                !
 ! D3    D(59,1,2,3)           174.9697         estimate D2E/DX2                !
 ! D4    D(59,1,2,7)            -6.0108         estimate D2E/DX2                !
 ! D5    D(2,1,5,4)              2.4            estimate D2E/DX2                !
 ! D6    D(2,1,5,6)           -177.8831         estimate D2E/DX2                !
 ! D7    D(59,1,5,4)          -167.8275         estimate D2E/DX2                !
 ! D8    D(59,1,5,6)            11.8894         estimate D2E/DX2                !
 ! D9    D(2,1,59,17)         -156.6598         estimate D2E/DX2                !
 ! D10   D(2,1,59,50)          -15.5253         estimate D2E/DX2                !
 ! D11   D(5,1,59,17)           13.1745         estimate D2E/DX2                !
 ! D12   D(5,1,59,50)          154.309          estimate D2E/DX2                !
 ! D13   D(1,2,3,4)             -6.561          estimate D2E/DX2                !
 ! D14   D(1,2,3,8)            112.9518         estimate D2E/DX2                !
 ! D15   D(1,2,3,9)           -129.4597         estimate D2E/DX2                !
 ! D16   D(7,2,3,4)            174.4317         estimate D2E/DX2                !
 ! D17   D(7,2,3,8)            -66.0555         estimate D2E/DX2                !
 ! D18   D(7,2,3,9)             51.5331         estimate D2E/DX2                !
 ! D19   D(2,3,4,5)              7.1627         estimate D2E/DX2                !
 ! D20   D(2,3,4,10)          -110.0775         estimate D2E/DX2                !
 ! D21   D(2,3,4,11)           126.3641         estimate D2E/DX2                !
 ! D22   D(8,3,4,5)           -109.1134         estimate D2E/DX2                !
 ! D23   D(8,3,4,10)           133.6464         estimate D2E/DX2                !
 ! D24   D(8,3,4,11)            10.088          estimate D2E/DX2                !
 ! D25   D(9,3,4,5)            126.8289         estimate D2E/DX2                !
 ! D26   D(9,3,4,10)             9.5887         estimate D2E/DX2                !
 ! D27   D(9,3,4,11)          -113.9697         estimate D2E/DX2                !
 ! D28   D(3,4,5,1)             -6.2939         estimate D2E/DX2                !
 ! D29   D(3,4,5,6)            173.9938         estimate D2E/DX2                !
 ! D30   D(10,4,5,1)           114.0915         estimate D2E/DX2                !
 ! D31   D(10,4,5,6)           -65.6208         estimate D2E/DX2                !
 ! D32   D(11,4,5,1)          -128.684          estimate D2E/DX2                !
 ! D33   D(11,4,5,6)            51.6037         estimate D2E/DX2                !
 ! D34   D(17,12,13,14)         -1.1033         estimate D2E/DX2                !
 ! D35   D(17,12,13,58)        179.6033         estimate D2E/DX2                !
 ! D36   D(19,12,13,14)        178.2912         estimate D2E/DX2                !
 ! D37   D(19,12,13,58)         -1.0022         estimate D2E/DX2                !
 ! D38   D(13,12,17,16)          4.2793         estimate D2E/DX2                !
 ! D39   D(13,12,17,59)       -167.5944         estimate D2E/DX2                !
 ! D40   D(19,12,17,16)       -175.1527         estimate D2E/DX2                !
 ! D41   D(19,12,17,59)         12.9736         estimate D2E/DX2                !
 ! D42   D(13,12,19,20)       -129.3372         estimate D2E/DX2                !
 ! D43   D(13,12,19,27)         52.1644         estimate D2E/DX2                !
 ! D44   D(17,12,19,20)         50.0855         estimate D2E/DX2                !
 ! D45   D(17,12,19,27)       -128.4129         estimate D2E/DX2                !
 ! D46   D(12,13,14,15)         -1.5545         estimate D2E/DX2                !
 ! D47   D(12,13,14,40)       -179.8305         estimate D2E/DX2                !
 ! D48   D(58,13,14,15)        177.7341         estimate D2E/DX2                !
 ! D49   D(58,13,14,40)         -0.542          estimate D2E/DX2                !
 ! D50   D(13,14,15,16)          1.2073         estimate D2E/DX2                !
 ! D51   D(13,14,15,18)       -176.3353         estimate D2E/DX2                !
 ! D52   D(40,14,15,16)        179.4537         estimate D2E/DX2                !
 ! D53   D(40,14,15,18)          1.9111         estimate D2E/DX2                !
 ! D54   D(13,14,40,41)        -60.4999         estimate D2E/DX2                !
 ! D55   D(13,14,40,42)         57.3801         estimate D2E/DX2                !
 ! D56   D(13,14,40,43)        178.556          estimate D2E/DX2                !
 ! D57   D(15,14,40,41)        121.2608         estimate D2E/DX2                !
 ! D58   D(15,14,40,42)       -120.8591         estimate D2E/DX2                !
 ! D59   D(15,14,40,43)          0.3167         estimate D2E/DX2                !
 ! D60   D(14,15,16,17)          1.7857         estimate D2E/DX2                !
 ! D61   D(14,15,16,56)       -178.0341         estimate D2E/DX2                !
 ! D62   D(18,15,16,17)        179.3034         estimate D2E/DX2                !
 ! D63   D(18,15,16,56)         -0.5164         estimate D2E/DX2                !
 ! D64   D(15,16,17,12)         -4.5623         estimate D2E/DX2                !
 ! D65   D(15,16,17,59)        167.9641         estimate D2E/DX2                !
 ! D66   D(56,16,17,12)        175.2694         estimate D2E/DX2                !
 ! D67   D(56,16,17,59)        -12.2042         estimate D2E/DX2                !
 ! D68   D(15,16,56,44)        -19.3897         estimate D2E/DX2                !
 ! D69   D(15,16,56,45)        157.9659         estimate D2E/DX2                !
 ! D70   D(17,16,56,44)        160.7873         estimate D2E/DX2                !
 ! D71   D(17,16,56,45)        -21.8571         estimate D2E/DX2                !
 ! D72   D(12,17,59,1)          26.8662         estimate D2E/DX2                !
 ! D73   D(12,17,59,50)       -137.2351         estimate D2E/DX2                !
 ! D74   D(16,17,59,1)        -145.5568         estimate D2E/DX2                !
 ! D75   D(16,17,59,50)         50.3419         estimate D2E/DX2                !
 ! D76   D(12,19,20,21)        179.5474         estimate D2E/DX2                !
 ! D77   D(12,19,20,28)         -1.4255         estimate D2E/DX2                !
 ! D78   D(27,19,20,21)         -1.9266         estimate D2E/DX2                !
 ! D79   D(27,19,20,28)        177.1005         estimate D2E/DX2                !
 ! D80   D(12,19,27,22)        179.8204         estimate D2E/DX2                !
 ! D81   D(12,19,27,39)          1.4527         estimate D2E/DX2                !
 ! D82   D(20,19,27,22)          1.2509         estimate D2E/DX2                !
 ! D83   D(20,19,27,39)       -177.1168         estimate D2E/DX2                !
 ! D84   D(19,20,21,23)          1.2594         estimate D2E/DX2                !
 ! D85   D(19,20,21,24)       -177.3505         estimate D2E/DX2                !
 ! D86   D(28,20,21,23)       -177.8183         estimate D2E/DX2                !
 ! D87   D(28,20,21,24)          3.5718         estimate D2E/DX2                !
 ! D88   D(19,20,28,29)       -130.0439         estimate D2E/DX2                !
 ! D89   D(19,20,28,30)         50.6687         estimate D2E/DX2                !
 ! D90   D(21,20,28,29)         48.9929         estimate D2E/DX2                !
 ! D91   D(21,20,28,30)       -130.2944         estimate D2E/DX2                !
 ! D92   D(20,21,23,22)          0.2014         estimate D2E/DX2                !
 ! D93   D(20,21,23,25)       -179.7715         estimate D2E/DX2                !
 ! D94   D(24,21,23,22)        178.7873         estimate D2E/DX2                !
 ! D95   D(24,21,23,25)         -1.1855         estimate D2E/DX2                !
 ! D96   D(26,22,23,21)        179.526          estimate D2E/DX2                !
 ! D97   D(26,22,23,25)         -0.5012         estimate D2E/DX2                !
 ! D98   D(27,22,23,21)         -0.92           estimate D2E/DX2                !
 ! D99   D(27,22,23,25)        179.0528         estimate D2E/DX2                !
 ! D100  D(23,22,27,19)          0.182          estimate D2E/DX2                !
 ! D101  D(23,22,27,39)        178.5502         estimate D2E/DX2                !
 ! D102  D(26,22,27,19)        179.7423         estimate D2E/DX2                !
 ! D103  D(26,22,27,39)         -1.8895         estimate D2E/DX2                !
 ! D104  D(20,28,29,31)        179.7936         estimate D2E/DX2                !
 ! D105  D(20,28,29,32)          1.1317         estimate D2E/DX2                !
 ! D106  D(30,28,29,31)         -0.8948         estimate D2E/DX2                !
 ! D107  D(30,28,29,32)       -179.5567         estimate D2E/DX2                !
 ! D108  D(20,28,30,33)        179.9229         estimate D2E/DX2                !
 ! D109  D(20,28,30,34)          0.1932         estimate D2E/DX2                !
 ! D110  D(29,28,30,33)          0.6358         estimate D2E/DX2                !
 ! D111  D(29,28,30,34)       -179.0938         estimate D2E/DX2                !
 ! D112  D(28,29,31,35)          0.4557         estimate D2E/DX2                !
 ! D113  D(28,29,31,36)       -179.2352         estimate D2E/DX2                !
 ! D114  D(32,29,31,35)        179.1076         estimate D2E/DX2                !
 ! D115  D(32,29,31,36)         -0.5833         estimate D2E/DX2                !
 ! D116  D(28,30,33,35)          0.0619         estimate D2E/DX2                !
 ! D117  D(28,30,33,37)       -179.6028         estimate D2E/DX2                !
 ! D118  D(34,30,33,35)        179.7907         estimate D2E/DX2                !
 ! D119  D(34,30,33,37)          0.126          estimate D2E/DX2                !
 ! D120  D(29,31,35,33)          0.2534         estimate D2E/DX2                !
 ! D121  D(29,31,35,38)       -179.9884         estimate D2E/DX2                !
 ! D122  D(36,31,35,33)        179.9416         estimate D2E/DX2                !
 ! D123  D(36,31,35,38)         -0.3003         estimate D2E/DX2                !
 ! D124  D(30,33,35,31)         -0.5113         estimate D2E/DX2                !
 ! D125  D(30,33,35,38)        179.7304         estimate D2E/DX2                !
 ! D126  D(37,33,35,31)        179.1523         estimate D2E/DX2                !
 ! D127  D(37,33,35,38)         -0.6061         estimate D2E/DX2                !
 ! D128  D(47,44,46,52)         57.4304         estimate D2E/DX2                !
 ! D129  D(47,44,46,53)        -62.0315         estimate D2E/DX2                !
 ! D130  D(47,44,46,57)        179.1516         estimate D2E/DX2                !
 ! D131  D(48,44,46,52)        175.6807         estimate D2E/DX2                !
 ! D132  D(48,44,46,53)         56.2188         estimate D2E/DX2                !
 ! D133  D(48,44,46,57)        -62.5981         estimate D2E/DX2                !
 ! D134  D(56,44,46,52)        -65.9479         estimate D2E/DX2                !
 ! D135  D(56,44,46,53)        174.5902         estimate D2E/DX2                !
 ! D136  D(56,44,46,57)         55.7734         estimate D2E/DX2                !
 ! D137  D(46,44,56,16)        124.8307         estimate D2E/DX2                !
 ! D138  D(46,44,56,45)        -52.7451         estimate D2E/DX2                !
 ! D139  D(47,44,56,16)          1.5605         estimate D2E/DX2                !
 ! D140  D(47,44,56,45)       -176.0153         estimate D2E/DX2                !
 ! D141  D(48,44,56,16)       -116.5212         estimate D2E/DX2                !
 ! D142  D(48,44,56,45)         65.9029         estimate D2E/DX2                !
 ! D143  D(50,45,49,54)        -52.9463         estimate D2E/DX2                !
 ! D144  D(50,45,49,55)         65.6577         estimate D2E/DX2                !
 ! D145  D(50,45,49,57)       -174.7787         estimate D2E/DX2                !
 ! D146  D(51,45,49,54)       -171.6319         estimate D2E/DX2                !
 ! D147  D(51,45,49,55)        -53.028          estimate D2E/DX2                !
 ! D148  D(51,45,49,57)         66.5357         estimate D2E/DX2                !
 ! D149  D(56,45,49,54)         67.4631         estimate D2E/DX2                !
 ! D150  D(56,45,49,55)       -173.933          estimate D2E/DX2                !
 ! D151  D(56,45,49,57)        -54.3694         estimate D2E/DX2                !
 ! D152  D(49,45,50,59)       -170.5429         estimate D2E/DX2                !
 ! D153  D(51,45,50,59)        -50.8644         estimate D2E/DX2                !
 ! D154  D(56,45,50,59)         69.8034         estimate D2E/DX2                !
 ! D155  D(49,45,56,16)       -126.1816         estimate D2E/DX2                !
 ! D156  D(49,45,56,44)         51.4345         estimate D2E/DX2                !
 ! D157  D(50,45,56,16)         -6.7643         estimate D2E/DX2                !
 ! D158  D(50,45,56,44)        170.8518         estimate D2E/DX2                !
 ! D159  D(51,45,56,16)        112.9315         estimate D2E/DX2                !
 ! D160  D(51,45,56,44)        -69.4524         estimate D2E/DX2                !
 ! D161  D(44,46,57,49)        -60.1695         estimate D2E/DX2                !
 ! D162  D(52,46,57,49)         61.038          estimate D2E/DX2                !
 ! D163  D(53,46,57,49)        179.4405         estimate D2E/DX2                !
 ! D164  D(45,49,57,46)         60.1849         estimate D2E/DX2                !
 ! D165  D(54,49,57,46)        -60.9175         estimate D2E/DX2                !
 ! D166  D(55,49,57,46)       -179.049          estimate D2E/DX2                !
 ! D167  D(45,50,59,1)         127.1826         estimate D2E/DX2                !
 ! D168  D(45,50,59,17)        -86.549          estimate D2E/DX2                !
 --------------------------------------------------------------------------------
 Trust Radius=3.00D-01 FncErr=1.00D-07 GrdErr=1.00D-06 EigMax=2.50D+02 EigMin=1.00D-04
 Number of steps in this run=    354 maximum allowed number of steps=    354.
 GradGradGradGradGradGradGradGradGradGradGradGradGradGradGradGradGradGrad

 Leave Link  103 at Mon Feb  3 12:46:04 2025, MaxMem=  7247757312 cpu:               0.6 elap:               0.0
 (Enter /opt/packages/gaussian/g16RevC.01/g16/l202.exe)
 Symmetry turned off by external request.
 Stoichiometry    C26H26FN3O3
 Framework group  C1[X(C26H26FN3O3)]
 Deg. of freedom   171
 Full point group                 C1      NOp   1
                          Input orientation:                          
 ---------------------------------------------------------------------
 Center     Atomic      Atomic             Coordinates (Angstroms)
 Number     Number       Type             X           Y           Z
 ---------------------------------------------------------------------
      1          7           0        0.457269   -5.832548   -4.415986
      2          6           0        1.317754   -5.473028   -3.487679
      3          6           0        0.664795   -4.886558   -2.250173
      4          6           0       -0.799484   -4.796354   -2.664450
      5          6           0       -0.840508   -5.509798   -4.017063
      6          8           0       -1.832002   -5.757032   -4.654403
      7          8           0        2.567233   -5.625272   -3.618460
      8          1           0        0.830615   -5.579089   -1.409198
      9          1           0        1.134224   -3.927048   -1.989035
     10          1           0       -1.142514   -3.761954   -2.806818
     11          1           0       -1.495444   -5.285705   -1.970360
     12          6           0       -1.164479   -5.154936   -7.037272
     13          6           0       -2.055276   -5.275335   -8.083905
     14          6           0       -1.901571   -6.351227   -8.986597
     15          6           0       -0.846874   -7.230703   -8.814304
     16          6           0        0.045303   -7.056434   -7.725326
     17          7           0       -0.173491   -6.055158   -6.855521
     18          1           0       -0.686690   -8.026143   -9.539419
     19          6           0       -1.222660   -4.035360   -6.057342
     20          6           0       -0.092706   -3.252035   -5.730326
     21          6           0       -0.233757   -2.212011   -4.806454
     22          6           0       -2.564714   -2.729001   -4.472418
     23          6           0       -1.450044   -1.946584   -4.183527
     24          1           0        0.632913   -1.588710   -4.596129
     25          1           0       -1.528020   -1.125434   -3.470123
     26          1           0       -3.528355   -2.549506   -3.994360
     27          6           0       -2.424646   -3.750530   -5.401276
     28          6           0        1.259528   -3.492479   -6.309131
     29          6           0        2.359801   -3.579819   -5.444297
     30          6           0        1.470933   -3.619701   -7.689478
     31          6           0        3.641480   -3.808366   -5.946798
     32          1           0        2.202070   -3.488904   -4.366003
     33          6           0        2.751655   -3.842537   -8.190839
     34          1           0        0.623799   -3.538653   -8.374937
     35          6           0        3.840574   -3.942966   -7.320710
     36          1           0        4.484002   -3.885751   -5.256500
     37          1           0        2.902569   -3.933110   -9.268239
     38          1           0        4.842434   -4.121972   -7.715634
     39          9           0       -3.489291   -4.524807   -5.659655
     40          6           0       -2.857333   -6.497829  -10.133522
     41          1           0       -3.882862   -6.624344   -9.756030
     42          1           0       -2.851406   -5.589018  -10.753006
     43          1           0       -2.604945   -7.358493  -10.764986
     44          6           0        1.297822   -9.177133   -8.069362
     45          6           0        2.269761   -7.410381   -6.701428
     46          6           0        2.612360   -9.258492   -8.829768
     47          1           0        0.455413   -9.439318   -8.717167
     48          1           0        1.324108   -9.905532   -7.239615
     49          6           0        3.546696   -7.586696   -7.515764
     50          1           0        2.165719   -6.350960   -6.433826
     51          1           0        2.329191   -8.001712   -5.771504
     52          1           0        2.570791   -8.589564   -9.711429
     53          1           0        2.787549  -10.285816   -9.176102
     54          1           0        3.530952   -6.873144   -8.362510
     55          1           0        4.420972   -7.364803   -6.888654
     56          7           0        1.127521   -7.846794   -7.501581
     57          8           0        3.686919   -8.901582   -7.995697
     58          1           0       -2.853373   -4.544482   -8.213435
     59          1           0        0.860069   -6.149815   -5.274853
 ---------------------------------------------------------------------
 Rotational constants (GHZ):           0.1912877           0.1355387           0.1076303
 Leave Link  202 at Mon Feb  3 12:46:04 2025, MaxMem=  7247757312 cpu:               0.4 elap:               0.0
 (Enter /opt/packages/gaussian/g16RevC.01/g16/l301.exe)
 General basis read from cards:  (5D, 7F)
 Centers:       2      3      4      5     12     13     14     15     16     19
 Centers:      20     21     22     23     27     28     29     30     31     33
 Centers:      35     40     44     45     46     49      8      9     10     11
 Centers:      18     24     25     26     32     34     36     37     38     41
 Centers:      42     43     47     48     50     51     52     53     54     55
 Centers:      58     59      1     17     56     39      6      7     57
 def2svp
 ****
 ======================================================================================================
                                       Pseudopotential Parameters
 ======================================================================================================
  Center     Atomic      Valence      Angular      Power
  Number     Number     Electrons     Momentum     of R      Exponent        Coefficient   SO-Coeffient
 ======================================================================================================
    1          7
                                   No pseudopotential on this center.
    2          6
                                   No pseudopotential on this center.
    3          6
                                   No pseudopotential on this center.
    4          6
                                   No pseudopotential on this center.
    5          6
                                   No pseudopotential on this center.
    6          8
                                   No pseudopotential on this center.
    7          8
                                   No pseudopotential on this center.
    8          1
                                   No pseudopotential on this center.
    9          1
                                   No pseudopotential on this center.
   10          1
                                   No pseudopotential on this center.
   11          1
                                   No pseudopotential on this center.
   12          6
                                   No pseudopotential on this center.
   13          6
                                   No pseudopotential on this center.
   14          6
                                   No pseudopotential on this center.
   15          6
                                   No pseudopotential on this center.
   16          6
                                   No pseudopotential on this center.
   17          7
                                   No pseudopotential on this center.
   18          1
                                   No pseudopotential on this center.
   19          6
                                   No pseudopotential on this center.
   20          6
                                   No pseudopotential on this center.
   21          6
                                   No pseudopotential on this center.
   22          6
                                   No pseudopotential on this center.
   23          6
                                   No pseudopotential on this center.
   24          1
                                   No pseudopotential on this center.
   25          1
                                   No pseudopotential on this center.
   26          1
                                   No pseudopotential on this center.
   27          6
                                   No pseudopotential on this center.
   28          6
                                   No pseudopotential on this center.
   29          6
                                   No pseudopotential on this center.
   30          6
                                   No pseudopotential on this center.
   31          6
                                   No pseudopotential on this center.
   32          1
                                   No pseudopotential on this center.
   33          6
                                   No pseudopotential on this center.
   34          1
                                   No pseudopotential on this center.
   35          6
                                   No pseudopotential on this center.
   36          1
                                   No pseudopotential on this center.
   37          1
                                   No pseudopotential on this center.
   38          1
                                   No pseudopotential on this center.
   39          9
                                   No pseudopotential on this center.
   40          6
                                   No pseudopotential on this center.
   41          1
                                   No pseudopotential on this center.
   42          1
                                   No pseudopotential on this center.
   43          1
                                   No pseudopotential on this center.
   44          6
                                   No pseudopotential on this center.
   45          6
                                   No pseudopotential on this center.
   46          6
                                   No pseudopotential on this center.
   47          1
                                   No pseudopotential on this center.
   48          1
                                   No pseudopotential on this center.
   49          6
                                   No pseudopotential on this center.
   50          1
                                   No pseudopotential on this center.
   51          1
                                   No pseudopotential on this center.
   52          1
                                   No pseudopotential on this center.
   53          1
                                   No pseudopotential on this center.
   54          1
                                   No pseudopotential on this center.
   55          1
                                   No pseudopotential on this center.
   56          7
                                   No pseudopotential on this center.
   57          8
                                   No pseudopotential on this center.
   58          1
                                   No pseudopotential on this center.
   59          1
                                   No pseudopotential on this center.
 ======================================================================================================
 Ernie: Thresh=  0.10000D-02 Tol=  0.10000D-05 Strict=F.
   592 basis functions,  1007 primitive gaussians,   625 cartesian basis functions
   118 alpha electrons      118 beta electrons
       nuclear repulsion energy      3718.4449262543 Hartrees.
 IExCor= 4336 DFT=T Ex+Corr=M062X ExCW=0 ScaHFX=  0.540000
 ScaDFX=  1.000000  1.000000  1.000000  1.000000 ScalE2=  1.000000  1.000000
 IRadAn=      5 IRanWt=     -1 IRanGd=            0 ICorTp=0 IEmpDi=131
 NAtoms=   59 NActive=   59 NUniq=   59 SFac= 1.00D+00 NAtFMM=   60 NAOKFM=F Big=F
 Integral buffers will be    131072 words long.
 Raffenetti 2 integral format.
 Two-electron integral symmetry is turned off.
 R6Disp:  Grimme-D3 Dispersion energy=       -0.0065370103 Hartrees.
 Nuclear repulsion after empirical dispersion term =     3718.4383892440 Hartrees.
 ------------------------------------------------------------------------------
 Polarizable Continuum Model (PCM)
 =================================
 Model                : PCM.
 Atomic radii         : SMD-Coulomb.
 Polarization charges : Total charges.
 Charge compensation  : None.
 Solution method      : On-the-fly selection.
 Cavity type          : VdW (van der Waals Surface) (Alpha=1.000).
 Cavity algorithm     : GePol (No added spheres)
                        Default sphere list used, NSphG=   59.
                        Lebedev-Laikov grids with approx.  5.0 points / Ang**2.
                        Smoothing algorithm: York/Karplus (Gamma=1.0000).
                        Polarization charges: spherical gaussians, with
                                              point-specific exponents (IZeta= 3).
                        Self-potential: point-specific (ISelfS= 7).
                        Self-field    : sphere-specific E.n sum rule (ISelfD= 2).
 1st derivatives      : Analytical E(r).r(x)/FMM algorithm (CHGder, D1EAlg=3).
                        Cavity 1st derivative terms included.
 Solvent              : PropylEthanoate, Eps=   5.520500 Eps(inf)=   1.916010
 ------------------------------------------------------------------------------
 GePol: Number of generator spheres                  =      59
 GePol: Total number of spheres                      =      59
 GePol: Number of exposed spheres                    =      59 (100.00%)
 GePol: Number of points                             =    3908
 GePol: Average weight of points                     =       0.11
 GePol: Minimum weight of points                     =   0.11D-11
 GePol: Maximum weight of points                     =    0.21501
 GePol: Number of points with low weight             =     243
 GePol: Fraction of low-weight points (<1% of avg)   =       6.22%
 GePol: Cavity surface area                          =    435.422 Ang**2
 GePol: Cavity volume                                =    476.539 Ang**3
 ------------------------------------------------------------------------------
 Atomic radii for non-electrostatic terms: SMD-CDS.
 ------------------------------------------------------------------------------
 PCM non-electrostatic energy =        -0.0134142389 Hartrees.
 Nuclear repulsion after PCM non-electrostatic terms =     3718.4249750051 Hartrees.
 Leave Link  301 at Mon Feb  3 12:46:05 2025, MaxMem=  7247757312 cpu:               3.9 elap:               0.1
 (Enter /opt/packages/gaussian/g16RevC.01/g16/l302.exe)
 NPDir=0 NMtPBC=     1 NCelOv=     1 NCel=       1 NClECP=     1 NCelD=      1
         NCelK=      1 NCelE2=     1 NClLst=     1 CellRange=     0.0.
 One-electron integrals computed using PRISM.
   1 Symmetry operations used in ECPInt.
 ECPInt:  NShTT=   38226 NPrTT=  139108 LenC2=   34209 LenP2D=   83188.
 LDataN:  DoStor=T MaxTD1= 4 Len=   56
 NBasis=   592 RedAO= T EigKep=  1.90D-04  NBF=   592
 NBsUse=   592 1.00D-06 EigRej= -1.00D+00 NBFU=   592
 Precomputing XC quadrature grid using
 IXCGrd= 4 IRadAn=           5 IRanWt=          -1 IRanGd=           0 AccXCQ= 0.00D+00.
 Generated NRdTot=       0 NPtTot=           0 NUsed=           0 NTot=          32
 NSgBfM=   622   622   622   622   622 MxSgAt=    59 MxSgA2=    59.
 Leave Link  302 at Mon Feb  3 12:46:06 2025, MaxMem=  7247757312 cpu:              25.8 elap:               0.8
 (Enter /opt/packages/gaussian/g16RevC.01/g16/l303.exe)
 DipDrv:  MaxL=1.
 Leave Link  303 at Mon Feb  3 12:46:06 2025, MaxMem=  7247757312 cpu:               2.6 elap:               0.1
 (Enter /opt/packages/gaussian/g16RevC.01/g16/l401.exe)
 ExpMin= 1.22D-01 ExpMax= 2.89D+03 ExpMxC= 4.35D+02 IAcc=3 IRadAn=         5 AccDes= 0.00D+00
 Harris functional with IExCor= 1009 and IRadAn=       5 diagonalized for initial guess.
 HarFok:  IExCor= 1009 AccDes= 0.00D+00 IRadAn=         5 IDoV= 1 UseB2=F ITyADJ=14
 ICtDFT=  3500011 ScaDFX=  1.000000  1.000000  1.000000  1.000000
 FoFCou: FMM=F IPFlag=           0 FMFlag=      100000 FMFlg1=           0
         NFxFlg=           0 DoJE=T BraDBF=F KetDBF=T FulRan=T
         wScrn=  0.000000 ICntrl=       500 IOpCl=  0 I1Cent=   200000004 NGrid=           0
         NMat0=    1 NMatS0=      1 NMatT0=    0 NMatD0=    1 NMtDS0=    0 NMtDT0=    0
 Symmetry not used in FoFCou.
 Harris En= -1493.69070415435    
 JPrj=0 DoOrth=F DoCkMO=F.
 Leave Link  401 at Mon Feb  3 12:46:08 2025, MaxMem=  7247757312 cpu:              60.1 elap:               1.9
 (Enter /opt/packages/gaussian/g16RevC.01/g16/l502.exe)
 Two-electron integral symmetry not used.
 Closed shell SCF:
 Using DIIS extrapolation, IDIIS=  1040.
 NGot=  7247757312 LenX=  7246949585 LenY=  7246558335
 Requested convergence on RMS density matrix=1.00D-08 within 128 cycles.
 Requested convergence on MAX density matrix=1.00D-06.
 Requested convergence on             energy=1.00D-06.
 No special actions if energy rises.
 Fock matrices will be formed incrementally for  20 cycles.

 Cycle   1  Pass 1  IDiag  1:
 FoFJK:  IHMeth= 1 ICntrl=       0 DoSepK=F KAlg= 0 I1Cent=           0 FoldK=F
 IRaf= 820000000 NMat=       1 IRICut=       1 DoRegI=T DoRafI=F ISym2E= 0 IDoP0=0 IntGTp=1.
 FoFCou: FMM=F IPFlag=           0 FMFlag=      100000 FMFlg1=           0
         NFxFlg=           0 DoJE=F BraDBF=F KetDBF=F FulRan=T
         wScrn=  0.000000 ICntrl=         0 IOpCl=  0 I1Cent=           0 NGrid=           0
         NMat0=    1 NMatS0=      1 NMatT0=    0 NMatD0=    1 NMtDS0=    0 NMtDT0=    0
 Symmetry not used in FoFCou.
 Inv3:  Mode=1 IEnd=    45817392.
 Iteration    1 A*A^-1 deviation from unit magnitude is 4.22D-15 for   3042.
 Iteration    1 A*A^-1 deviation from orthogonality  is 3.55D-15 for   2409    890.
 Iteration    1 A^-1*A deviation from unit magnitude is 4.00D-15 for   3042.
 Iteration    1 A^-1*A deviation from orthogonality  is 1.99D-14 for   2322   2261.
 E= -1493.87338044217    
 DIIS: error= 1.53D-02 at cycle   1 NSaved=   1.
 NSaved= 1 IEnMin= 1 EnMin= -1493.87338044217     IErMin= 1 ErrMin= 1.53D-02
 ErrMax= 1.53D-02  0.00D+00 EMaxC= 1.00D-01 BMatC= 6.59D-01 BMatP= 6.59D-01
 IDIUse=3 WtCom= 8.47D-01 WtEn= 1.53D-01
 Coeff-Com:  0.100D+01
 Coeff-En:   0.100D+01
 Coeff:      0.100D+01
 Gap=     0.269 Goal=   None    Shift=    0.000
 GapD=    0.269 DampG=1.000 DampE=0.500 DampFc=0.5000 IDamp=-1.
 Damping current iteration by 5.00D-01
 RMSDP=3.40D-03 MaxDP=2.68D-01              OVMax= 1.59D-01

 Cycle   2  Pass 1  IDiag  1:
 RMSU=  1.67D-03    CP:  9.79D-01
 E= -1494.18422647334     Delta-E=       -0.310846031165 Rises=F Damp=T
 DIIS: error= 4.40D-03 at cycle   2 NSaved=   2.
 NSaved= 2 IEnMin= 2 EnMin= -1494.18422647334     IErMin= 2 ErrMin= 4.40D-03
 ErrMax= 4.40D-03  0.00D+00 EMaxC= 1.00D-01 BMatC= 6.11D-02 BMatP= 6.59D-01
 IDIUse=3 WtCom= 9.56D-01 WtEn= 4.40D-02
 Coeff-Com: -0.676D-01 0.107D+01
 Coeff-En:   0.000D+00 0.100D+01
 Coeff:     -0.646D-01 0.106D+01
 Gap=     0.268 Goal=   None    Shift=    0.000
 RMSDP=1.08D-03 MaxDP=9.64D-02 DE=-3.11D-01 OVMax= 1.15D-01

 Cycle   3  Pass 1  IDiag  1:
 RMSU=  1.04D-03    CP:  9.60D-01  1.05D+00
 E= -1494.46103768248     Delta-E=       -0.276811209149 Rises=F Damp=F
 DIIS: error= 9.42D-03 at cycle   3 NSaved=   3.
 NSaved= 3 IEnMin= 3 EnMin= -1494.46103768248     IErMin= 2 ErrMin= 4.40D-03
 ErrMax= 9.42D-03  0.00D+00 EMaxC= 1.00D-01 BMatC= 4.61D-02 BMatP= 6.11D-02
 IDIUse=3 WtCom= 9.06D-01 WtEn= 9.42D-02
 Coeff-Com: -0.107D+00 0.535D+00 0.572D+00
 Coeff-En:   0.000D+00 0.000D+00 0.100D+01
 Coeff:     -0.973D-01 0.485D+00 0.612D+00
 Gap=     0.235 Goal=   None    Shift=    0.000
 RMSDP=5.66D-04 MaxDP=4.55D-02 DE=-2.77D-01 OVMax= 3.92D-02

 Cycle   4  Pass 1  IDiag  1:
 RMSU=  3.66D-04    CP:  9.65D-01  1.18D+00  6.48D-01
 E= -1494.49157540193     Delta-E=       -0.030537719450 Rises=F Damp=F
 DIIS: error= 3.96D-03 at cycle   4 NSaved=   4.
 NSaved= 4 IEnMin= 4 EnMin= -1494.49157540193     IErMin= 4 ErrMin= 3.96D-03
 ErrMax= 3.96D-03  0.00D+00 EMaxC= 1.00D-01 BMatC= 8.26D-03 BMatP= 4.61D-02
 IDIUse=3 WtCom= 9.60D-01 WtEn= 3.96D-02
 Coeff-Com: -0.298D-01 0.910D-01 0.325D+00 0.613D+00
 Coeff-En:   0.000D+00 0.000D+00 0.150D+00 0.850D+00
 Coeff:     -0.286D-01 0.874D-01 0.318D+00 0.623D+00
 Gap=     0.237 Goal=   None    Shift=    0.000
 RMSDP=2.14D-04 MaxDP=1.68D-02 DE=-3.05D-02 OVMax= 1.54D-02

 Cycle   5  Pass 1  IDiag  1:
 RMSU=  9.18D-05    CP:  9.63D-01  1.15D+00  7.60D-01  6.22D-01
 E= -1494.49805668806     Delta-E=       -0.006481286129 Rises=F Damp=F
 DIIS: error= 5.61D-04 at cycle   5 NSaved=   5.
 NSaved= 5 IEnMin= 5 EnMin= -1494.49805668806     IErMin= 5 ErrMin= 5.61D-04
 ErrMax= 5.61D-04  0.00D+00 EMaxC= 1.00D-01 BMatC= 2.89D-04 BMatP= 8.26D-03
 IDIUse=3 WtCom= 9.94D-01 WtEn= 5.61D-03
 Coeff-Com: -0.736D-02 0.127D-01 0.114D+00 0.283D+00 0.598D+00
 Coeff-En:   0.000D+00 0.000D+00 0.000D+00 0.000D+00 0.100D+01
 Coeff:     -0.732D-02 0.126D-01 0.113D+00 0.281D+00 0.600D+00
 Gap=     0.235 Goal=   None    Shift=    0.000
 RMSDP=4.42D-05 MaxDP=2.78D-03 DE=-6.48D-03 OVMax= 4.11D-03

 Cycle   6  Pass 1  IDiag  1:
 RMSU=  2.96D-05    CP:  9.63D-01  1.15D+00  7.61D-01  6.70D-01  7.07D-01
 E= -1494.49830415809     Delta-E=       -0.000247470026 Rises=F Damp=F
 DIIS: error= 1.03D-04 at cycle   6 NSaved=   6.
 NSaved= 6 IEnMin= 6 EnMin= -1494.49830415809     IErMin= 6 ErrMin= 1.03D-04
 ErrMax= 1.03D-04  0.00D+00 EMaxC= 1.00D-01 BMatC= 2.14D-05 BMatP= 2.89D-04
 IDIUse=3 WtCom= 9.99D-01 WtEn= 1.03D-03
 Coeff-Com: -0.464D-03-0.244D-02 0.221D-01 0.673D-01 0.257D+00 0.656D+00
 Coeff-En:   0.000D+00 0.000D+00 0.000D+00 0.000D+00 0.000D+00 0.100D+01
 Coeff:     -0.463D-03-0.243D-02 0.221D-01 0.672D-01 0.257D+00 0.656D+00
 Gap=     0.236 Goal=   None    Shift=    0.000
 RMSDP=1.27D-05 MaxDP=6.07D-04 DE=-2.47D-04 OVMax= 1.67D-03

 Cycle   7  Pass 1  IDiag  1:
 RMSU=  9.72D-06    CP:  9.63D-01  1.15D+00  7.64D-01  6.71D-01  7.60D-01
                    CP:  8.05D-01
 E= -1494.49832545594     Delta-E=       -0.000021297854 Rises=F Damp=F
 DIIS: error= 3.49D-05 at cycle   7 NSaved=   7.
 NSaved= 7 IEnMin= 7 EnMin= -1494.49832545594     IErMin= 7 ErrMin= 3.49D-05
 ErrMax= 3.49D-05  0.00D+00 EMaxC= 1.00D-01 BMatC= 2.39D-06 BMatP= 2.14D-05
 IDIUse=1 WtCom= 1.00D+00 WtEn= 0.00D+00
 Coeff-Com:  0.721D-03-0.249D-02-0.211D-02-0.322D-02 0.356D-01 0.266D+00
 Coeff-Com:  0.706D+00
 Coeff:      0.721D-03-0.249D-02-0.211D-02-0.322D-02 0.356D-01 0.266D+00
 Coeff:      0.706D+00
 Gap=     0.236 Goal=   None    Shift=    0.000
 RMSDP=5.18D-06 MaxDP=3.92D-04 DE=-2.13D-05 OVMax= 3.94D-04

 Cycle   8  Pass 1  IDiag  1:
 RMSU=  3.96D-06    CP:  9.63D-01  1.15D+00  7.66D-01  6.74D-01  7.70D-01
                    CP:  8.79D-01  9.49D-01
 E= -1494.49832790531     Delta-E=       -0.000002449367 Rises=F Damp=F
 DIIS: error= 1.26D-05 at cycle   8 NSaved=   8.
 NSaved= 8 IEnMin= 8 EnMin= -1494.49832790531     IErMin= 8 ErrMin= 1.26D-05
 ErrMax= 1.26D-05  0.00D+00 EMaxC= 1.00D-01 BMatC= 3.81D-07 BMatP= 2.39D-06
 IDIUse=1 WtCom= 1.00D+00 WtEn= 0.00D+00
 Coeff-Com:  0.519D-03-0.913D-03-0.468D-02-0.142D-01-0.335D-01 0.319D-02
 Coeff-Com:  0.297D+00 0.753D+00
 Coeff:      0.519D-03-0.913D-03-0.468D-02-0.142D-01-0.335D-01 0.319D-02
 Coeff:      0.297D+00 0.753D+00
 Gap=     0.236 Goal=   None    Shift=    0.000
 RMSDP=2.50D-06 MaxDP=1.26D-04 DE=-2.45D-06 OVMax= 2.55D-04

 Cycle   9  Pass 1  IDiag  1:
 RMSU=  1.43D-06    CP:  9.63D-01  1.15D+00  7.66D-01  6.73D-01  7.77D-01
                    CP:  9.12D-01  1.06D+00  8.56D-01
 E= -1494.49832837350     Delta-E=       -0.000000468192 Rises=F Damp=F
 DIIS: error= 6.05D-06 at cycle   9 NSaved=   9.
 NSaved= 9 IEnMin= 9 EnMin= -1494.49832837350     IErMin= 9 ErrMin= 6.05D-06
 ErrMax= 6.05D-06  0.00D+00 EMaxC= 1.00D-01 BMatC= 5.42D-08 BMatP= 3.81D-07
 IDIUse=1 WtCom= 1.00D+00 WtEn= 0.00D+00
 Coeff-Com:  0.194D-03-0.242D-03-0.170D-02-0.594D-02-0.187D-01-0.203D-01
 Coeff-Com:  0.619D-01 0.339D+00 0.645D+00
 Coeff:      0.194D-03-0.242D-03-0.170D-02-0.594D-02-0.187D-01-0.203D-01
 Coeff:      0.619D-01 0.339D+00 0.645D+00
 Gap=     0.236 Goal=   None    Shift=    0.000
 RMSDP=7.69D-07 MaxDP=6.47D-05 DE=-4.68D-07 OVMax= 1.00D-04

 Cycle  10  Pass 1  IDiag  1:
 RMSU=  5.28D-07    CP:  9.63D-01  1.15D+00  7.67D-01  6.73D-01  7.78D-01
                    CP:  9.19D-01  1.07D+00  9.59D-01  9.25D-01
 E= -1494.49832843011     Delta-E=       -0.000000056604 Rises=F Damp=F
 DIIS: error= 1.78D-06 at cycle  10 NSaved=  10.
 NSaved=10 IEnMin=10 EnMin= -1494.49832843011     IErMin=10 ErrMin= 1.78D-06
 ErrMax= 1.78D-06  0.00D+00 EMaxC= 1.00D-01 BMatC= 6.84D-09 BMatP= 5.42D-08
 IDIUse=1 WtCom= 1.00D+00 WtEn= 0.00D+00
 Coeff-Com:  0.602D-06 0.300D-04 0.238D-03 0.215D-03-0.171D-02-0.724D-02
 Coeff-Com: -0.322D-01 0.421D-03 0.249D+00 0.791D+00
 Coeff:      0.602D-06 0.300D-04 0.238D-03 0.215D-03-0.171D-02-0.724D-02
 Coeff:     -0.322D-01 0.421D-03 0.249D+00 0.791D+00
 Gap=     0.236 Goal=   None    Shift=    0.000
 RMSDP=3.19D-07 MaxDP=1.67D-05 DE=-5.66D-08 OVMax= 3.73D-05

 Cycle  11  Pass 1  IDiag  1:
 RMSU=  1.81D-07    CP:  9.63D-01  1.15D+00  7.67D-01  6.73D-01  7.78D-01
                    CP:  9.21D-01  1.08D+00  9.75D-01  1.04D+00  8.99D-01
 E= -1494.49832843891     Delta-E=       -0.000000008803 Rises=F Damp=F
 DIIS: error= 6.46D-07 at cycle  11 NSaved=  11.
 NSaved=11 IEnMin=11 EnMin= -1494.49832843891     IErMin=11 ErrMin= 6.46D-07
 ErrMax= 6.46D-07  0.00D+00 EMaxC= 1.00D-01 BMatC= 9.82D-10 BMatP= 6.84D-09
 IDIUse=1 WtCom= 1.00D+00 WtEn= 0.00D+00
 Coeff-Com: -0.174D-04 0.334D-04 0.312D-03 0.757D-03 0.118D-02-0.418D-03
 Coeff-Com: -0.207D-01-0.367D-01 0.299D-01 0.349D+00 0.676D+00
 Coeff:     -0.174D-04 0.334D-04 0.312D-03 0.757D-03 0.118D-02-0.418D-03
 Coeff:     -0.207D-01-0.367D-01 0.299D-01 0.349D+00 0.676D+00
 Gap=     0.236 Goal=   None    Shift=    0.000
 RMSDP=1.17D-07 MaxDP=8.98D-06 DE=-8.80D-09 OVMax= 1.55D-05

 Cycle  12  Pass 1  IDiag  1:
 RMSU=  6.79D-08    CP:  9.63D-01  1.15D+00  7.67D-01  6.73D-01  7.78D-01
                    CP:  9.22D-01  1.09D+00  9.88D-01  1.06D+00  1.01D+00
                    CP:  8.24D-01
 E= -1494.49832844000     Delta-E=       -0.000000001085 Rises=F Damp=F
 DIIS: error= 2.00D-07 at cycle  12 NSaved=  12.
 NSaved=12 IEnMin=12 EnMin= -1494.49832844000     IErMin=12 ErrMin= 2.00D-07
 ErrMax= 2.00D-07  0.00D+00 EMaxC= 1.00D-01 BMatC= 1.23D-10 BMatP= 9.82D-10
 IDIUse=1 WtCom= 1.00D+00 WtEn= 0.00D+00
 Coeff-Com: -0.686D-05 0.890D-05 0.116D-03 0.323D-03 0.726D-03 0.766D-03
 Coeff-Com: -0.561D-02-0.167D-01-0.206D-01 0.594D-01 0.308D+00 0.674D+00
 Coeff:     -0.686D-05 0.890D-05 0.116D-03 0.323D-03 0.726D-03 0.766D-03
 Coeff:     -0.561D-02-0.167D-01-0.206D-01 0.594D-01 0.308D+00 0.674D+00
 Gap=     0.236 Goal=   None    Shift=    0.000
 RMSDP=3.77D-08 MaxDP=2.74D-06 DE=-1.09D-09 OVMax= 5.44D-06

 Cycle  13  Pass 1  IDiag  1:
 RMSU=  2.29D-08    CP:  9.63D-01  1.15D+00  7.67D-01  6.73D-01  7.78D-01
                    CP:  9.22D-01  1.09D+00  9.88D-01  1.07D+00  1.02D+00
                    CP:  9.30D-01  8.30D-01
 E= -1494.49832844016     Delta-E=       -0.000000000167 Rises=F Damp=F
 DIIS: error= 8.61D-08 at cycle  13 NSaved=  13.
 NSaved=13 IEnMin=13 EnMin= -1494.49832844016     IErMin=13 ErrMin= 8.61D-08
 ErrMax= 8.61D-08  0.00D+00 EMaxC= 1.00D-01 BMatC= 1.76D-11 BMatP= 1.23D-10
 IDIUse=1 WtCom= 1.00D+00 WtEn= 0.00D+00
 Coeff-Com: -0.104D-05-0.102D-06 0.197D-04 0.686D-04 0.207D-03 0.443D-03
 Coeff-Com: -0.304D-03-0.392D-02-0.153D-01-0.143D-01 0.700D-01 0.324D+00
 Coeff-Com:  0.639D+00
 Coeff:     -0.104D-05-0.102D-06 0.197D-04 0.686D-04 0.207D-03 0.443D-03
 Coeff:     -0.304D-03-0.392D-02-0.153D-01-0.143D-01 0.700D-01 0.324D+00
 Coeff:      0.639D+00
 Gap=     0.236 Goal=   None    Shift=    0.000
 RMSDP=1.34D-08 MaxDP=6.98D-07 DE=-1.67D-10 OVMax= 1.44D-06

 Cycle  14  Pass 1  IDiag  1:
 RMSU=  9.15D-09    CP:  9.63D-01  1.15D+00  7.67D-01  6.73D-01  7.78D-01
                    CP:  9.22D-01  1.09D+00  9.88D-01  1.07D+00  1.02D+00
                    CP:  9.47D-01  9.27D-01  8.33D-01
 E= -1494.49832844013     Delta-E=        0.000000000029 Rises=F Damp=F
 DIIS: error= 3.25D-08 at cycle  14 NSaved=  14.
 NSaved=14 IEnMin=13 EnMin= -1494.49832844016     IErMin=14 ErrMin= 3.25D-08
 ErrMax= 3.25D-08  0.00D+00 EMaxC= 1.00D-01 BMatC= 1.76D-12 BMatP= 1.76D-11
 IDIUse=1 WtCom= 1.00D+00 WtEn= 0.00D+00
 Coeff-Com:  0.902D-06-0.172D-05-0.120D-04-0.291D-04-0.547D-04 0.430D-04
 Coeff-Com:  0.858D-03 0.164D-02-0.177D-02-0.137D-01-0.256D-01-0.244D-02
 Coeff-Com:  0.244D+00 0.797D+00
 Coeff:      0.902D-06-0.172D-05-0.120D-04-0.291D-04-0.547D-04 0.430D-04
 Coeff:      0.858D-03 0.164D-02-0.177D-02-0.137D-01-0.256D-01-0.244D-02
 Coeff:      0.244D+00 0.797D+00
 Gap=     0.236 Goal=   None    Shift=    0.000
 RMSDP=4.99D-09 MaxDP=2.09D-07 DE= 2.86D-11 OVMax= 8.06D-07

 Error on total polarization charges =  0.04432
 SCF Done:  E(RM062X) =  -1494.49832844     A.U. after   14 cycles
            NFock= 14  Conv=0.50D-08     -V/T= 2.0097
 KE= 1.480188107194D+03 PE=-1.091537897409D+04 EE= 4.222267563453D+03
 SMD-CDS (non-electrostatic) energy       (kcal/mol) =      -8.42
 (included in total energy above)
 Leave Link  502 at Mon Feb  3 12:48:45 2025, MaxMem=  7247757312 cpu:            4940.4 elap:             157.4
 (Enter /opt/packages/gaussian/g16RevC.01/g16/l508.exe)
 QCSCF skips out because SCF is already converged.
 Leave Link  508 at Mon Feb  3 12:48:46 2025, MaxMem=  7247757312 cpu:               0.1 elap:               0.0
 (Enter /opt/packages/gaussian/g16RevC.01/g16/l601.exe)
 Copying SCF densities to generalized density rwf, IOpCl= 0 IROHF=0.

 **********************************************************************

            Population analysis using the SCF Density.

 **********************************************************************

 Alpha  occ. eigenvalues --  -25.24945 -19.62832 -19.61412 -19.59387 -14.78878
 Alpha  occ. eigenvalues --  -14.77534 -14.73729 -10.67154 -10.65363 -10.64053
 Alpha  occ. eigenvalues --  -10.62677 -10.59551 -10.59286 -10.59145 -10.58162
 Alpha  occ. eigenvalues --  -10.57986 -10.57381 -10.57131 -10.56947 -10.56344
 Alpha  occ. eigenvalues --  -10.56252 -10.56135 -10.56024 -10.55857 -10.55514
 Alpha  occ. eigenvalues --  -10.55425 -10.55344 -10.55268 -10.55241 -10.55149
 Alpha  occ. eigenvalues --  -10.54794 -10.54621 -10.54175  -1.33970  -1.17658
 Alpha  occ. eigenvalues --   -1.15163  -1.12924  -1.07232  -1.03918  -1.01005
 Alpha  occ. eigenvalues --   -0.96978  -0.94379  -0.90315  -0.88706  -0.87783
 Alpha  occ. eigenvalues --   -0.86530  -0.86359  -0.82921  -0.82609  -0.80816
 Alpha  occ. eigenvalues --   -0.78720  -0.77557  -0.75989  -0.74346  -0.72065
 Alpha  occ. eigenvalues --   -0.70904  -0.69920  -0.69135  -0.68123  -0.67742
 Alpha  occ. eigenvalues --   -0.66800  -0.65371  -0.63542  -0.61504  -0.60076
 Alpha  occ. eigenvalues --   -0.59491  -0.58504  -0.57723  -0.56965  -0.56259
 Alpha  occ. eigenvalues --   -0.55748  -0.55300  -0.54658  -0.54483  -0.53441
 Alpha  occ. eigenvalues --   -0.53273  -0.52064  -0.51774  -0.51607  -0.51529
 Alpha  occ. eigenvalues --   -0.50798  -0.50722  -0.49635  -0.49050  -0.48708
 Alpha  occ. eigenvalues --   -0.48435  -0.48159  -0.48138  -0.47071  -0.46760
 Alpha  occ. eigenvalues --   -0.46019  -0.45555  -0.45285  -0.44955  -0.44288
 Alpha  occ. eigenvalues --   -0.43756  -0.43155  -0.43115  -0.42150  -0.41407
 Alpha  occ. eigenvalues --   -0.41283  -0.40865  -0.40328  -0.39601  -0.39033
 Alpha  occ. eigenvalues --   -0.37803  -0.36456  -0.34907  -0.34618  -0.32600
 Alpha  occ. eigenvalues --   -0.32357  -0.32128  -0.31597  -0.31399  -0.29650
 Alpha  occ. eigenvalues --   -0.28458  -0.27885  -0.24560
 Alpha virt. eigenvalues --   -0.00968   0.00931   0.01885   0.02549   0.03708
 Alpha virt. eigenvalues --    0.05079   0.05804   0.07556   0.09885   0.10554
 Alpha virt. eigenvalues --    0.11477   0.12036   0.12402   0.12980   0.14045
 Alpha virt. eigenvalues --    0.14433   0.14958   0.15707   0.15995   0.16636
 Alpha virt. eigenvalues --    0.16811   0.17168   0.17613   0.17800   0.18015
 Alpha virt. eigenvalues --    0.18121   0.18379   0.18691   0.19402   0.19837
 Alpha virt. eigenvalues --    0.19903   0.20590   0.20715   0.22034   0.22228
 Alpha virt. eigenvalues --    0.22477   0.22914   0.23549   0.23870   0.24021
 Alpha virt. eigenvalues --    0.24774   0.25473   0.26147   0.26584   0.28439
 Alpha virt. eigenvalues --    0.28734   0.29098   0.30132   0.30771   0.31258
 Alpha virt. eigenvalues --    0.31602   0.32947   0.33275   0.33575   0.34221
 Alpha virt. eigenvalues --    0.34286   0.34593   0.35714   0.36201   0.36442
 Alpha virt. eigenvalues --    0.37081   0.37933   0.39491   0.39743   0.39904
 Alpha virt. eigenvalues --    0.41454   0.41939   0.43342   0.43499   0.44422
 Alpha virt. eigenvalues --    0.44978   0.45794   0.46156   0.46653   0.47004
 Alpha virt. eigenvalues --    0.47714   0.48684   0.49139   0.49503   0.49673
 Alpha virt. eigenvalues --    0.50410   0.50673   0.51267   0.51469   0.52052
 Alpha virt. eigenvalues --    0.52294   0.52729   0.53294   0.54039   0.54356
 Alpha virt. eigenvalues --    0.54396   0.55042   0.55696   0.55922   0.56586
 Alpha virt. eigenvalues --    0.57314   0.58089   0.58641   0.59313   0.59487
 Alpha virt. eigenvalues --    0.60901   0.61581   0.62249   0.62851   0.63104
 Alpha virt. eigenvalues --    0.63678   0.64184   0.64853   0.65014   0.65571
 Alpha virt. eigenvalues --    0.65743   0.66226   0.66408   0.66986   0.67208
 Alpha virt. eigenvalues --    0.68163   0.68244   0.68798   0.69147   0.69798
 Alpha virt. eigenvalues --    0.69950   0.70181   0.70604   0.70779   0.70985
 Alpha virt. eigenvalues --    0.71314   0.71533   0.71878   0.72163   0.72232
 Alpha virt. eigenvalues --    0.72422   0.72614   0.73045   0.73428   0.73807
 Alpha virt. eigenvalues --    0.74296   0.74425   0.74503   0.74707   0.75231
 Alpha virt. eigenvalues --    0.75817   0.75925   0.76410   0.76759   0.76937
 Alpha virt. eigenvalues --    0.77402   0.77659   0.77893   0.78402   0.78892
 Alpha virt. eigenvalues --    0.79121   0.79819   0.80111   0.81307   0.81587
 Alpha virt. eigenvalues --    0.82298   0.82743   0.83225   0.83712   0.84384
 Alpha virt. eigenvalues --    0.84674   0.84915   0.86051   0.86434   0.87196
 Alpha virt. eigenvalues --    0.87516   0.87957   0.88849   0.89253   0.90099
 Alpha virt. eigenvalues --    0.91282   0.91589   0.92500   0.92632   0.94200
 Alpha virt. eigenvalues --    0.95792   0.96137   0.96701   0.97908   0.99421
 Alpha virt. eigenvalues --    1.00357   1.01054   1.02226   1.03567   1.03857
 Alpha virt. eigenvalues --    1.05843   1.06515   1.06881   1.08086   1.09884
 Alpha virt. eigenvalues --    1.11546   1.12701   1.14176   1.14612   1.15274
 Alpha virt. eigenvalues --    1.15972   1.17348   1.17879   1.19034   1.19632
 Alpha virt. eigenvalues --    1.21253   1.21928   1.22861   1.23788   1.23961
 Alpha virt. eigenvalues --    1.24566   1.25197   1.26114   1.26757   1.26790
 Alpha virt. eigenvalues --    1.27580   1.29040   1.29487   1.30549   1.32191
 Alpha virt. eigenvalues --    1.32875   1.33097   1.33310   1.34111   1.35000
 Alpha virt. eigenvalues --    1.35857   1.36356   1.37106   1.37659   1.38340
 Alpha virt. eigenvalues --    1.38793   1.39620   1.40505   1.40638   1.41227
 Alpha virt. eigenvalues --    1.42349   1.43532   1.44886   1.45908   1.47199
 Alpha virt. eigenvalues --    1.49827   1.50075   1.50940   1.51522   1.54117
[...]
 00003727,0.00005060,-0.00000367,-0.00001403,-0.00003277,0.00003213,-0.
 00001254,-0.00000579,-0.00001936,-0.00001187,-0.00004123,-0.00001880,-
 0.00004357,0.00001249,-0.00002194,0.00001310,-0.00000513,-0.00003317,0
 .00008153,0.00001815,0.00005885,0.00004927,-0.00001748,0.00000185,-0.0
 0000487,0.00005665,0.00007173,-0.00005842,-0.00000899,0.00004587,0.000
 04109,-0.00001892,0.00004400,-0.00000207,-0.00002756,-0.00001670,-0.00
 002054,-0.00002629,0.00000834,-0.00003834,0.00000477,-0.00001397,0.000
 00557,-0.03057914,-0.00839898,-0.04763644,0.00270461,0.04185323,0.0079
 4827,-0.11967038,0.00481062,-0.06921029,-0.00863293,0.00362027,0.00191
 851,0.00348963,-0.00069457,0.00007470,-0.07878887,0.00140070,-0.011285
 53,-0.00691477,0.00123427,0.00091293,0.00278835,-0.00060514,-0.0008238
 0,0.00677728,0.00307776,-0.00366484,0.00006429,-0.00286378,-0.00277594
 ,0.00493851,-0.01417324,-0.00487717,0.00348914,-0.02220341,-0.00328251
 ,0.00713708,-0.00399296,0.00009798,0.21298994,0.00092248,-0.00018709,-
 0.00031122,-0.00103503,0.00014058,0.00075120,0.00007946,0.00002801,-0.
 00017564,0.00004706,0.00000289,-0.00013097,-0.00100395,0.00000169,0.00
 038300,0.00047577,0.00002444,-0.00000041,0.00063415,-0.00028738,-0.001
 08763,0.00001598,-0.00000812,-0.00002417,0.00001410,-0.00000444,-0.000
 00665,0.00000730,-0.00000428,-0.00000938,0.00001922,-0.00000323,-0.000
 02623,-0.00042232,0.00072656,0.00014876,0.00024838,-0.00002894,0.00028
 460,0.00004462,-0.00000767,-0.00001869,0.00007210,-0.00020292,-0.00014
 914,0.00013039,0.00054522,0.00068935,0.00137866,-0.00057519,0.00015768
 ,-0.00000994,0.00007865,0.00016272,0.00007222,-0.00003556,-0.00005808,
 -0.00013157,0.00005488,0.00008089,0.00010749,-0.00003052,-0.00003719,0
 .00006952,0.00001800,0.00000250,-0.00004333,-0.00000430,-0.00001320,-0
 .00000326,0.00001148,0.00000905,0.00000604,-0.00000861,-0.00000902,0.0
 0000393,-0.00000376,-0.00000394,-0.00019256,-0.00008741,-0.00002096,-0
 .00006735,0.00000297,-0.00001339,-0.00005942,-0.00008277,0.00014762,-0
 .00006126,0.00003017,-0.00004197,0.00008289,-0.00021726,0.00020497,0.0
 0001456,0.00004195,-0.00001048,-0.00007759,-0.00008622,-0.00019473,0.0
 0003246,0.00000673,0.00000306,0.00011061,-0.00025043,-0.00006933,0.000
 02457,0.00009388,0.00004865,-0.00000681,0.00005183,-0.00000767,0.00011
 131,0.00016443,-0.00006812,0.00015436,0.00007093,0.00001203,0.00005898
 ,-0.00003244,-0.00001282,0.00002358,0.00000510,0.00002708,0.00000743,0
 .00001627,0.00002202,0.00000469,0.00001269,0.00003146,0.00131175,0.003
 34843,0.00211548,0.00671885,-0.03595245,-0.01027943,-0.01347079,-0.096
 33007,-0.02932025,0.00056869,0.00135931,-0.00035275,0.00074315,-0.0001
 6553,-0.00002220,0.02436245,-0.21459603,-0.00709322,0.00518531,0.00111
 704,-0.00050870,0.00019399,0.00214034,-0.00042407,0.00778886,0.0054088
 0,0.00815197,-0.02446409,-0.00424775,-0.03483457,-0.00062333,-0.042687
 88,-0.00397801,-0.00117427,-0.01368513,-0.00494514,-0.00449168,0.00136
 052,-0.00082495,-0.00397251,0.39268677,0.00088756,-0.00019189,-0.00003
 959,-0.00130829,0.00022587,0.00043502,0.00007468,0.00004727,-0.0001371
 0,0.00002755,-0.00000129,-0.00008549,-0.00083170,0.00005720,0.00027580
 ,0.00043893,-0.00002071,0.00006478,0.00091273,-0.00053030,-0.00081645,
 0.00001943,-0.00000516,0.00000784,0.00001144,-0.00000490,-0.00000522,0
 .00001589,-0.00000964,-0.00000749,0.00001251,0.00000467,-0.00000748,-0
 .00022666,0.00041352,0.00010979,0.00014123,-0.00000526,0.00017660,0.00
 010610,0.00001195,0.00008972,0.00003428,-0.00030589,-0.00008521,0.0000
 6199,0.00104625,0.00046408,0.00091395,-0.00038633,0.00012269,0.0000976
 1,0.00012296,0.00019789,0.00001728,-0.00003065,-0.00001257,-0.00003431
 ,0.00002499,0.00002453,0.00002533,-0.00000993,0.00000979,0.00001545,0.
 00000223,0.00000720,-0.00000654,0.00000158,0.00000705,-0.00000176,0.00
 000986,-0.00000380,-0.00000070,0.00000164,-0.00000534,-0.00000103,0.00
 000311,-0.00000527,-0.00007190,-0.00001285,-0.00001801,-0.00004468,0.0
 0002405,0.00000803,-0.00009519,-0.00005661,0.00009777,0.00001597,0.000
 00970,-0.00000492,0.00001866,-0.00015369,0.00001850,-0.00000657,0.0000
 4114,0.00001497,-0.00000907,0.00002597,-0.00007325,0.00002467,-0.00001
 376,-0.00000188,0.00004574,-0.00003302,-0.00005425,0.00003562,0.000073
 43,0.00003739,-0.00000161,-0.00003851,0.00004165,-0.00001929,0.0000119
 1,-0.00004352,0.00005291,0.00002521,0.00001627,0.00003054,-0.00002876,
 -0.00000763,0.00000009,0.00000400,0.00001875,0.00001561,0.00000488,0.0
 0000895,0.00001641,0.00002132,0.00001982,-0.01438878,-0.00180050,-0.00
 682849,-0.00044718,-0.01818284,-0.00053217,-0.07673680,0.00242569,-0.1
 7858032,-0.00056031,0.00033078,0.00168515,-0.00097357,0.00000406,0.002
 24398,-0.00838395,-0.03670376,-0.09011926,0.00331556,-0.00052715,0.001
 05501,-0.00210785,0.00071139,0.00057156,-0.02500273,-0.00424003,-0.040
 73435,-0.00872719,-0.00469812,-0.01327071,-0.00321030,0.01727633,0.009
 35649,0.00307952,-0.03555581,-0.00596977,0.00072316,-0.00085469,-0.000
 97006,0.13232639,0.08121292,0.32118222,-0.00002936,-0.00006766,-0.0003
 6618,0.00015816,-0.00000475,0.00004031,-0.00001002,0.00000455,-0.00002
 745,0.00000804,0.00000145,-0.00002459,-0.00016819,0.00002054,0.0000586
 0,0.00007824,-0.00004910,-0.00000086,-0.00006126,-0.00001008,-0.000010
 53,0.00000203,-0.00000045,-0.00000510,-0.00000106,-0.00000013,-0.00000
 693,0.00000120,-0.00000057,-0.00000767,0.00000015,-0.00000090,-0.00000
 480,-0.00915284,0.01150526,0.00256907,-0.21757824,0.15002544,-0.041075
 33,0.00162560,-0.00072290,-0.00087162,0.00263164,0.00139297,-0.0018367
 6,0.00041004,-0.00096814,-0.00035044,0.00053896,0.00173069,-0.00597944
 ,0.00026746,0.00003502,-0.00012875,-0.00070254,-0.00037716,0.00175166,
 -0.00009137,-0.00038062,-0.00032577,-0.00026184,0.00014892,0.00011548,
 -0.00003440,-0.00005897,-0.00031849,0.00022378,0.00010422,0.00004307,0
 .00000948,-0.00000797,-0.00001802,0.00001342,-0.00001246,0.00001838,-0
 .00000851,-0.00000549,-0.00000163,-0.00022357,0.00009433,0.00001936,0.
 00001833,-0.00003576,0.00002833,0.00003508,-0.00003433,-0.00000196,-0.
 00008760,-0.00003368,-0.00003626,-0.00000369,0.00000407,0.00002493,0.0
 0000093,0.00000688,0.00000387,0.00006073,-0.00001560,0.00001810,-0.000
 05355,0.00002007,0.00000344,-0.00000313,0.00000102,-0.00002923,0.00000
 394,0.00000213,0.00000084,-0.00000584,0.00000227,-0.00000131,0.0000038
 6,0.00000034,0.00000081,-0.00008459,0.00004758,0.00130188,-0.00042103,
 -0.00113610,0.00065428,-0.00026240,0.00007851,0.00026583,0.00038943,-0
 .00003726,0.00039338,-0.00007963,-0.00009498,0.00008997,-0.00005205,-0
 .00010054,0.00010580,-0.00001702,-0.00009996,0.00008971,0.00003406,0.0
 0004413,0.00000942,-0.00004602,0.00002694,-0.00004148,-0.00001356,0.00
 000893,-0.00004754,0.00005131,-0.00002596,-0.00002178,-0.00000912,0.00
 008971,-0.00001790,0.00003214,0.00001336,0.00000317,-0.00000096,-0.000
 00527,0.00000530,-0.00001638,0.00000958,-0.00000210,-0.00001132,-0.000
 00031,0.00000773,-0.00001074,0.00000937,-0.00000215,-0.00028526,-0.000
 08228,0.00039374,-0.00002023,0.00001885,0.00002000,0.22312002,-0.00001
 233,-0.00006833,-0.00008898,0.00004719,-0.00000154,0.00000939,-0.00000
 157,0.00000395,-0.00000426,-0.00000084,0.00000328,-0.00000612,0.000026
 61,0.00001180,-0.00000240,-0.00003705,-0.00002187,-0.00001308,-0.00002
 681,-0.00000126,0.00000991,0.00000003,0.00000018,-0.00000113,-0.000001
 63,0.00000002,-0.00000095,0.00000032,0.00000053,-0.00000131,-0.0000004
 3,-0.00000122,-0.00000078,-0.00531255,0.00503700,-0.00071065,0.1497094
 3,-0.17127845,0.01981665,0.01704524,-0.00990586,0.00525079,0.00083825,
 -0.00051066,-0.00488738,-0.00041972,-0.00072605,-0.00105118,0.00067327
 ,0.00392706,-0.00361857,0.00099256,-0.00036245,0.00013981,-0.00155178,
 -0.00075953,0.00154548,-0.00003963,-0.00013067,-0.00020698,-0.00016710
 ,0.00007774,0.00003387,-0.00017826,-0.00017897,-0.00013899,0.00014950,
 0.00004850,0.00000737,0.00000576,-0.00001476,0.00000250,-0.00000355,-0
 .00000536,-0.00000102,-0.00000506,0.00001661,0.00001586,0.00081057,0.0
 0100927,0.00034683,0.00001778,-0.00001041,0.00002376,0.00000478,-0.000
 00535,-0.00000927,-0.00003420,-0.00001759,-0.00002197,-0.00000148,0.00
 000131,0.00000439,0.00000039,0.00000115,0.00000191,0.00001073,0.000000
 12,0.00001206,0.00002020,0.00000355,0.00001241,0.00000111,0.00000161,-
 0.00000860,0.00000226,0.00000036,0.00000037,-0.00000271,-0.00000221,-0
 .00000020,0.00000118,-0.00000111,0.00000021,0.00002645,-0.00068268,-0.
 00162257,-0.00042168,0.00023701,0.00199947,-0.00052317,-0.00017358,-0.
 00022529,0.00004144,-0.00022567,-0.00016194,-0.00012917,0.00009571,0.0
 0014122,0.00002046,-0.00005362,-0.00001552,0.00005689,-0.00010426,0.00
 006885,-0.00001483,0.00004124,0.00004852,-0.00004570,0.00006784,0.0000
 2218,-0.00000700,0.00001677,-0.00002681,-0.00000676,-0.00003644,0.0000
 0057,-0.00004593,0.00003271,-0.00001148,0.00004504,0.00001645,0.000008
 64,0.00000354,-0.00000260,-0.00000150,-0.00000353,0.00000105,-0.000004
 10,-0.00000265,0.00000236,-0.00000194,0.00000306,0.00000636,-0.0000005
 3,-0.00041545,-0.00002554,0.00058233,0.00005080,-0.00001058,0.00001726
 ,-0.16120141,0.17455806,0.00005068,-0.00002027,-0.00022791,0.00003563,
 -0.00000252,0.00000691,-0.00000555,-0.00000131,-0.00001122,0.00001033,
 0.00000898,-0.00000750,-0.00020670,0.00001161,0.00001693,0.00012572,-0
 .00003385,0.00003744,-0.00000136,-0.00000531,-0.00001416,0.00000152,-0
 .00000118,-0.00000275,0.00000100,0.00000106,-0.00000465,0.00000117,-0.
 00000093,-0.00000359,0.00000108,-0.00000012,-0.00000481,-0.01478485,0.
 01650775,0.00106239,-0.03895403,0.01850502,-0.05139669,0.01431077,-0.0
 1104846,0.00553634,-0.00181137,-0.00455149,0.00010266,0.00003316,-0.00
 092094,-0.00087725,-0.00588038,-0.00320493,-0.00079706,0.00060179,-0.0
 0059308,0.00034691,0.00167907,0.00147476,-0.00114693,-0.00005286,0.000
 02790,0.00032603,0.00024018,0.00007299,0.00001684,0.00024530,0.0000975
 8,0.00025753,-0.00008255,-0.00006175,-0.00000354,0.00000093,0.00002665
 ,0.00001187,0.00000810,0.00003168,-0.00000284,0.00000635,0.00000239,-0
 .00003750,-0.00205615,-0.00177148,-0.00175469,-0.00006537,0.00007388,-
 0.00001573,0.00002537,-0.00000547,-0.00001279,0.00005468,-0.00000459,0
 .00000558,0.00000094,-0.00000123,-0.00000656,-0.00000421,0.00000313,-0
 .00000478,-0.00000510,-0.00001384,-0.00001041,0.00000525,0.00001418,0.
 00000824,0.00001777,-0.00000325,-0.00000217,0.00000301,-0.00000067,-0.
 00000076,0.00000888,-0.00000076,-0.00000309,0.00000014,0.00000191,-0.0
 0000113,0.00140338,0.00084098,-0.00020811,0.00150535,0.00101655,-0.000
 00910,0.00023958,-0.00008622,0.00018119,-0.00007075,0.00031340,-0.0003
 8206,0.00000925,0.00020784,-0.00003945,-0.00002055,-0.00000591,-0.0001
 3061,-0.00014130,0.00002635,-0.00007937,-0.00005820,-0.00000009,-0.000
 02706,0.00006720,0.00000189,0.00008508,0.00000917,-0.00000612,0.000056
 55,0.00007202,0.00004280,0.00002146,0.00009268,0.00003896,0.00002010,-
 0.00002203,-0.00004233,0.00000712,0.00000240,0.00000053,0.00000103,0.0
 0000286,-0.00000278,0.00000687,-0.00000681,0.00000124,0.00000532,0.000
 00323,-0.00000595,-0.00000097,0.00045165,0.00036592,-0.00023364,-0.000
 01886,0.00006663,0.00003640,0.04292189,-0.01741591,0.04888412,-0.07458
 604,0.00218528,-0.00380995,0.01138574,-0.00249614,-0.02611879,-0.00422
 826,0.00063090,-0.00255336,-0.00445015,0.00064386,0.00336683,0.0147279
 8,0.00151284,0.02873870,-0.00040436,-0.00070212,-0.00512364,0.00057790
 ,0.00004736,0.00449936,0.00015093,-0.00011972,-0.00071056,0.00016686,0
 .00001670,-0.00066727,0.00011307,-0.00000756,0.00074712,0.00018105,0.0
 0018610,0.00089898,-0.00286261,0.00192714,-0.00329982,0.00044424,0.000
 82738,0.00045041,0.00010880,-0.00057998,-0.00021850,-0.00022048,0.0007
 9878,-0.00026158,0.00356589,-0.00318267,-0.00021497,-0.00524821,0.0005
 3974,0.00521056,0.00013043,0.00006487,0.00014018,-0.00058854,0.0002484
 1,-0.00014241,0.00065255,0.00010121,-0.00007687,-0.00009331,-0.0000087
 6,0.00001896,-0.00004474,-0.00003073,-0.00002244,0.00003134,-0.0000897
 0,-0.00011839,-0.00001678,-0.00004477,-0.00003541,-0.00000110,-0.00001
 757,0.00000514,0.00001476,-0.00002174,-0.00002373,-0.00056430,0.000022
 69,0.00014356,0.00031076,-0.00008268,-0.00000420,0.00006057,0.00014441
 ,0.00001244,-0.00011838,-0.00000886,0.00018292,-0.00024797,0.00015374,
 0.00007871,-0.00006681,-0.00016548,-0.00013932,0.00015079,-0.00004113,
 -0.00003215,-0.00002060,0.00000500,-0.00004972,-0.00012151,0.00003184,
 -0.00010646,-0.00001107,-0.00001355,-0.00000259,0.00000115,0.00000337,
 -0.00000708,0.00000382,-0.00001333,-0.00001337,0.00024771,0.00007399,0
 .00002447,0.00007747,-0.00007998,0.00005428,0.00001151,0.00004385,0.00
 005475,0.00003233,0.00001822,0.00005450,0.00001178,0.00002202,0.000033
 45,-0.00017657,-0.00008284,-0.00042055,0.00075789,0.00149950,0.0012476
 1,0.00022142,0.00011757,0.00032659,-0.00000560,-0.00008730,-0.00003441
 ,0.00004298,0.00011299,0.00002529,-0.00078309,0.00000011,-0.00015531,-
 0.00237611,0.00008868,0.00203486,-0.00014238,0.00061555,-0.00016972,-0
 .00000466,0.00000723,-0.00004556,-0.00004705,-0.00000911,-0.00003594,0
 .00015453,-0.00002114,-0.00009117,-0.00004418,0.00003589,-0.00000068,-
 0.00225099,0.00044603,-0.00009380,0.00024256,-0.00055512,-0.00033681,0
 .00008929,0.00000916,-0.00000048,0.06505774,0.00194567,-0.02639929,-0.
 01804692,-0.00193753,-0.00244025,0.00217969,0.00099883,0.00612332,0.00
 006314,0.00073592,0.00572558,-0.00062104,0.00084993,-0.00109756,-0.002
 36721,-0.00057138,-0.00262580,0.00007493,0.00022389,-0.00241697,-0.000
 33728,0.00020088,-0.00033593,-0.00102255,-0.00029545,-0.00017348,0.001
 12186,0.00014731,-0.00018966,0.00105941,-0.00028478,-0.00029377,-0.000
 94756,0.00056758,0.00145060,0.00256243,0.00073997,-0.00010174,-0.00003
 994,-0.00009035,-0.00015317,-0.00003422,0.00048336,-0.00030428,-0.0004
 1104,-0.00158986,0.00056134,-0.00243497,0.00108886,-0.00776243,0.00075
 790,-0.00007572,-0.00001224,-0.00006002,0.00034456,-0.00037048,0.00058
 021,0.00022449,-0.00056371,0.00009215,-0.00000742,-0.00015835,-0.00051
 885,-0.00004781,0.00019431,0.00014114,-0.00017356,-0.00004796,0.000060
 38,0.00001789,-0.00001016,0.00004237,-0.00002340,0.00001546,0.00003137
 ,-0.00001428,0.00001496,0.00000548,0.00093763,0.00013996,-0.00016819,-
 0.00051507,-0.00056457,0.00031095,0.00019955,0.00011143,0.00007342,-0.
 00003828,0.00016486,0.00036545,-0.00031782,0.00013437,0.00015244,-0.00
 018372,-0.00021818,-0.00023871,0.00031287,-0.00008870,-0.00006423,-0.0
 0002310,0.00000740,-0.00003130,-0.00001148,-0.00007388,-0.00036295,0.0
 0005020,0.00000572,0.00000719,0.00002674,-0.00000565,-0.00003737,0.000
 03164,0.00000308,-0.00003633,-0.00056968,-0.00035439,-0.00008451,0.000
 03161,-0.00006640,0.00002823,-0.00001062,0.00002457,0.00001302,0.00001
 367,0.00000188,0.00002372,0.00000045,0.00000291,-0.00000157,0.00010493
 ,-0.00020608,0.00000985,0.00015299,0.00014350,-0.00142379,-0.00000566,
 -0.00002103,-0.00020545,0.00000838,0.00005390,0.00004207,-0.00001949,-
 0.00003855,-0.00001218,0.00053166,-0.00035357,0.00029166,0.00039021,0.
 00045894,-0.00033212,0.00037325,-0.00107490,0.00015702,-0.00002256,-0.
 00002498,0.00004972,-0.00000920,0.00002821,0.00001120,-0.00025627,0.00
 005306,0.00015974,-0.00002080,0.00002347,-0.00002226,0.00015355,-0.000
 29375,0.00029488,-0.00017640,0.00027339,0.00020890,0.00012367,0.000099
 02,0.00002820,-0.00472043,0.03302665,-0.00240721,-0.01823558,-0.362299
 22,-0.01586174,0.00125259,-0.00594343,0.00091680,-0.00051166,0.0028792
 5,-0.00059448,0.00016103,0.00234553,0.01534808,-0.00153889,-0.00876396
 ,-0.00852773,0.00033642,-0.00050873,0.00832624,-0.00054954,-0.00071746
 ,-0.00009768,0.00001285,0.00049386,0.00001303,0.00013056,0.00042442,0.
 00003617,0.00005372,0.00026935,-0.00000586,-0.00003703,0.00049071,-0.0
 0703095,0.00799974,0.00037922,0.00290324,0.00025414,0.00219993,0.00021
 247,-0.00169185,-0.00087898,-0.00093611,0.00232106,0.00039847,0.008869
 30,-0.00908897,-0.00162779,0.00149652,-0.00048361,0.01385784,0.0005478
 5,0.00023156,0.00065958,0.00010279,-0.00018666,0.00012219,0.00030472,0
 .00038894,-0.00005451,-0.00011274,-0.00004664,-0.00024466,0.00017521,-
 0.00004495,-0.00030872,0.00002784,-0.00023789,-0.00028746,-0.00001801,
 -0.00013289,-0.00002154,0.00002243,-0.00004712,0.00000910,0.00004256,-
 0.00009549,-0.00003720,-0.00083913,-0.00063648,0.00028682,0.00017991,0
 .00033209,0.00000578,0.00012276,-0.00008495,0.00064479,-0.00011386,-0.
 00028627,-0.00005255,-0.00009720,0.00004634,-0.00007371,-0.00006817,-0
 .00034541,-0.00022950,0.00011646,-0.00013404,-0.00023447,-0.00003326,0
 .00008925,-0.00012989,-0.00009454,0.00002320,-0.00003004,-0.00010806,-
 0.00000921,0.00001556,0.00000480,0.00003838,-0.00000540,-0.00000791,0.
 00000288,-0.00001930,0.00046927,0.00018293,-0.00008158,0.00035128,-0.0
 0025867,0.00008723,0.00011845,0.00012257,0.00021447,0.00011027,0.00008
 354,0.00021101,0.00003369,0.00008438,0.00013174,-0.00013030,-0.0015244
 2,-0.00071758,0.00108982,-0.00120958,0.00127607,0.00036994,0.00026901,
 -0.00002537,0.00004476,0.00003356,0.00003599,0.00007471,0.00057156,-0.
 00005778,0.00078243,0.00007378,-0.00037151,0.00214229,-0.00024718,-0.0
 0008104,0.00015396,0.00061497,-0.00063064,0.00002035,-0.00004419,0.000
 01536,-0.00018345,0.00010680,-0.00000088,0.00002588,-0.00004060,-0.000
 00803,-0.00035632,0.00014474,-0.00002524,-0.00482965,0.00241524,-0.000
 23304,-0.00049293,0.00037068,0.00001393,0.00060369,0.00013883,0.000419
 95,-0.00321265,0.01886243,0.35681303\\0.00000241,-0.00000740,-0.000010
 70,-0.00000839,-0.00000167,-0.00000423,0.00000007,-0.00000128,0.000002
 05,0.00000108,0.00000540,-0.00000212,-0.00000942,-0.00000106,0.0000020
 6,0.00000263,0.00000186,-0.00000094,0.00000111,-0.00000229,-0.00000120
 ,-0.00000230,-0.00000301,-0.00000073,-0.00000037,-0.00000247,-0.000001
 12,-0.00000142,-0.00000312,0.00000153,-0.00000100,-0.00000270,-0.00000
 126,0.00000136,0.00000142,0.00000545,-0.00000040,0.00000377,0.00000219
 ,0.00000146,0.00000154,-0.00000037,-0.00000077,-0.00000058,-0.00000332
 ,-0.00000930,0.00000833,0.00000600,-0.00000240,-0.00000578,-0.00001595
 ,-0.00000230,0.00000117,0.00000029,-0.00000006,-0.00000384,-0.00000360
 ,-0.00000157,0.00000146,0.00000206,0.00000097,0.00000068,0.00000250,0.
 00000310,0.00000207,0.00000069,0.00000310,0.00000061,-0.00000006,0.000
 00279,-0.00000115,0.00000124,0.00000238,0.00000033,0.00000143,0.000000
 90,0.00000060,-0.00000052,0.00000214,0.00000379,0.00000158,0.00000729,
 -0.00000093,0.00000254,0.00000035,-0.00000196,0.00000098,0.00000052,0.
 00000086,-0.00000088,0.00000119,-0.00000186,0.00000181,0.00000008,-0.0
 0000103,0.00000105,-0.00000031,-0.00000083,0.00000080,0.00000139,0.000
 00083,0.00000158,0.00000089,-0.00000129,0.00000139,0.00000152,-0.00000
 291,0.00000050,0.00000243,-0.00000016,0.00000116,0.00000146,-0.0000022
 1,0.00000179,0.00000052,0.00000199,-0.00000071,-0.00000135,0.00000356,
 -0.00000053,-0.00000008,0.00000433,-0.00000135,0.00000131,0.00000357,-
 0.00000119,-0.00000056,0.00000341,-0.00000147,-0.00000379,-0.00000199,
 -0.00000133,-0.00000395,-0.00000182,0.00000017,-0.00000264,-0.00000110
 ,0.00000028,-0.00000097,0.00000070,-0.00000185,-0.00000238,-0.00000011
 ,-0.00000106,-0.00000030,-0.00000466,-0.00000068,-0.00000135,-0.000003
 17,-0.00000040,-0.00000263,-0.00000104,0.00000032,-0.00000144,-0.00000
 044,-0.00000069,-0.00000277,-0.00000061,-0.00000173,-0.00000081,-0.000
 00116,0.,-0.00000209,-0.00000197,0.00000043,0.00001061,0.00000589,-0.0
 0000607,-0.00000057,0.00000014,-0.00000106,0.00000047,0.00000234,-0.00
 000163,0.00001217,0.00000698,0.00002487\\\@
 The archive entry for this job was punched.


 ERWIN WITH HIS PSI CAN DO
 CALCULATIONS QUITE A FEW.
 BUT ONE THING HAS NOT BEEN SEEN
 JUST WHAT DOES PSI REALLY MEAN.
 -- WALTER HUCKEL, TRANS. BY FELIX BLOCH
 Job cpu time:       0 days 13 hours  2 minutes 40.7 seconds.
 Elapsed time:       0 days  0 hours 24 minutes 39.1 seconds.
 File lengths (MBytes):  RWF=   2559 Int=      0 D2E=      0 Chk=     49 Scr=      1
 Normal termination of Gaussian 16 at Mon Feb  3 14:37:55 2025.
