 Entering Gaussian System, Link 0=g16
 Initial command:
 /ihome/crc/install/gaussian/c01/avx2/tar/g16/l1.exe "/scratch/slurm-18020485/Gau-20433.inp" -scrdir="/scratch/slurm-18020485/"
 Entering Link 1 = /ihome/crc/install/gaussian/c01/avx2/tar/g16/l1.exe PID=     20441.
  
 Copyright (c) 1988-2019, Gaussian, Inc.  All Rights Reserved.
  
 This is part of the Gaussian(R) 16 program.  It is based on
 the Gaussian(R) 09 system (copyright 2009, Gaussian, Inc.),
 the Gaussian(R) 03 system (copyright 2003, Gaussian, Inc.),
 the Gaussian(R) 98 system (copyright 1998, Gaussian, Inc.),
 the Gaussian(R) 94 system (copyright 1995, Gaussian, Inc.),
 the Gaussian 92(TM) system (copyright 1992, Gaussian, Inc.),
 the Gaussian 90(TM) system (copyright 1990, Gaussian, Inc.),
 the Gaussian 88(TM) system (copyright 1988, Gaussian, Inc.),
 the Gaussian 86(TM) system (copyright 1986, Carnegie Mellon
 University), and the Gaussian 82(TM) system (copyright 1983,
 Carnegie Mellon University). Gaussian is a federally registered
 trademark of Gaussian, Inc.
  
 This software contains proprietary and confidential information,
 including trade secrets, belonging to Gaussian, Inc.
  
 This software is provided under written license and may be
 used, copied, transmitted, or stored only in accord with that
 written license.
  
 The following legend is applicable only to US Government
 contracts under FAR:
  
                    RESTRICTED RIGHTS LEGEND
  
 Use, reproduction and disclosure by the US Government is
 subject to restrictions as set forth in subparagraphs (a)
 and (c) of the Commercial Computer Software - Restricted
 Rights clause in FAR 52.227-19.
  
 Gaussian, Inc.
 340 Quinnipiac St., Bldg. 40, Wallingford CT 06492
  
  
 ---------------------------------------------------------------
 Warning -- This program may not be used in any manner that
 competes with the business of Gaussian, Inc. or will provide
 assistance to any competitor of Gaussian, Inc.  The licensee
 of this program is prohibited from giving any competitor of
 Gaussian, Inc. access to this program.  By using this program,
 the user acknowledges that Gaussian, Inc. is engaged in the
 business of creating and licensing software in the field of
 computational chemistry and represents and warrants to the
 licensee that it is not a competitor of Gaussian, Inc. and that
 it will not use this program in any manner prohibited above.
 ---------------------------------------------------------------
  

 Cite this work as:
 Gaussian 16, Revision C.01,
 M. J. Frisch, G. W. Trucks, H. B. Schlegel, G. E. Scuseria, 
 M. A. Robb, J. R. Cheeseman, G. Scalmani, V. Barone, 
 G. A. Petersson, H. Nakatsuji, X. Li, M. Caricato, A. V. Marenich, 
 J. Bloino, B. G. Janesko, R. Gomperts, B. Mennucci, H. P. Hratchian, 
 J. V. Ortiz, A. F. Izmaylov, J. L. Sonnenberg, D. Williams-Young, 
 F. Ding, F. Lipparini, F. Egidi, J. Goings, B. Peng, A. Petrone, 
 T. Henderson, D. Ranasinghe, V. G. Zakrzewski, J. Gao, N. Rega, 
 G. Zheng, W. Liang, M. Hada, M. Ehara, K. Toyota, R. Fukuda, 
 J. Hasegawa, M. Ishida, T. Nakajima, Y. Honda, O. Kitao, H. Nakai, 
 T. Vreven, K. Throssell, J. A. Montgomery, Jr., J. E. Peralta, 
 F. Ogliaro, M. J. Bearpark, J. J. Heyd, E. N. Brothers, K. N. Kudin, 
 V. N. Staroverov, T. A. Keith, R. Kobayashi, J. Normand, 
 K. Raghavachari, A. P. Rendell, J. C. Burant, S. S. Iyengar, 
 J. Tomasi, M. Cossi, J. M. Millam, M. Klene, C. Adamo, R. Cammi, 
 J. W. Ochterski, R. L. Martin, K. Morokuma, O. Farkas, 
 J. B. Foresman, and D. J. Fox, Gaussian, Inc., Wallingford CT, 2019.
 
 ******************************************
 Gaussian 16:  ES64L-G16RevC.01  3-Jul-2019
                 4-Feb-2025 
 ******************************************
 %nprocshared=16
 Will use up to   16 processors via shared memory.
 %mem=28GB
 ----------------------------------------------------------------------
 #p m062x genecp opt freq nosymm scrf=(smd,solvent=propylethanoate) emp
 iricaldispersion=gd3 scf=(xqc,maxcycles=128)
 ----------------------------------------------------------------------
 1/18=20,19=15,26=3,38=1/1,3;
 2/9=110,12=2,15=1,17=6,18=5,40=1/2;
 3/5=7,11=2,16=1,17=8,25=1,30=1,70=32201,71=1,72=169,74=-55,124=31/1,2,3;
 4//1;
 5/5=2,7=128,8=3,13=1,38=5,53=169/2,8;
 6/7=2,8=2,9=2,10=2,28=1/1;
 7/30=1/1,2,3,16;
 1/18=20,19=15,26=3/3(2);
 2/9=110,15=1/2;
 99//99;
 2/9=110,15=1/2;
 3/5=7,6=1,11=2,16=1,17=8,25=1,30=1,70=32205,71=1,72=169,74=-55,82=7,124=31/1,2,3;
 4/5=5,16=3,69=1/1;
 5/5=2,7=128,8=3,13=1,38=5,53=169/2,8;
 7/30=1/1,2,3,16;
 1/18=20,19=15,26=3/3(-5);
 2/9=110,15=1/2;
 6/7=2,8=2,9=2,10=2,19=2,28=1/1;
 99/9=1/99;
 Leave Link    1 at Tue Feb  4 21:35:58 2025, MaxMem=  3758096384 cpu:               0.4 elap:               0.0
 (Enter /ihome/crc/install/gaussian/c01/avx2/tar/g16/l101.exe)
 ------------------------
 noalkyne_S-ax-R_00_pre_3
 ------------------------
 Symbolic Z-matrix:
 Charge =  0 Multiplicity = 1
 C                     3.34376   0.44582  -0.73066 
 C                     4.42692   0.69881   0.08946 
 C                     4.94928  -0.35468   0.84545 
 C                     4.41442  -1.61661   0.6928 
 C                     3.36595  -1.81755  -0.22378 
 N                     2.83959  -0.77938  -0.88272 
 H                     4.82339  -2.4425    1.25158 
 C                     2.65929   1.4988   -1.50616 
 C                     2.242     2.70552  -0.9307 
 C                     1.58741   3.64711  -1.71729 
 C                     1.76089   2.23387  -3.64359 
 C                     1.34268   3.4137   -3.05711 
 H                     1.24087   4.56069  -1.25835 
 H                     0.82135   4.1515   -3.64764 
 H                     1.58171   2.01837  -4.68396 
 C                     2.39845   1.29547  -2.85782 
 C                     2.47976   2.99449   0.49355 
 C                     2.18344   2.05973   1.48192 
 C                     3.02029   4.22228   0.86864 
 C                     2.44767   2.3428    2.80944 
 H                     1.74544   1.11217   1.2057 
 C                     3.27705   4.50417   2.19805 
 H                     3.26223   4.94962   0.10699 
 C                     2.99738   3.56145   3.17236 
 H                     2.23481   1.6035    3.56783 
 H                     3.70404   5.45782   2.47319 
 H                     3.20762   3.77525   4.21028 
 F                     2.8249    0.15714  -3.44395 
 C                     6.07891  -0.09396   1.79158 
 H                     6.38386  -1.00408   2.3013 
 H                     6.9343    0.3128    1.25403 
 H                     5.77366   0.64154   2.53477 
 C                     2.98478  -4.20403   0.31108 
 C                     2.18371  -3.2969   -1.7817 
 C                     1.59372  -4.8335    0.48178 
 H                     3.36438  -3.92562   1.29194 
 H                     3.66031  -4.93625  -0.15472 
 C                     0.84418  -3.99605  -1.53933 
 H                     2.03961  -2.3618   -2.3197 
 H                     2.82223  -3.96593  -2.3783 
 H                     0.94292  -4.1246    1.0129 
 H                     1.66424  -5.76707   1.04352 
 H                     0.14923  -3.31759  -1.0287 
 H                     0.40982  -4.32338  -2.48555 
 N                     2.86827  -3.03833  -0.53034 
 O                     1.02955  -5.16389  -0.76543 
 H                     1.28496  -0.7467   -0.86278 
 C                    -5.06307   2.99813   1.26027 
 C                    -4.3839    1.90684   0.79519 
 C                    -3.16709   1.50784   1.38888 
 C                    -2.64541   2.27583   2.46509 
 C                    -3.37744   3.39165   2.9237 
 C                    -4.56072   3.74344   2.33806 
 H                    -5.99136   3.29664   0.7966 
 H                    -4.76697   1.34119  -0.04033 
 C                    -2.43011   0.38497   0.92132 
 C                    -1.41665   1.90806   3.05377 
 H                    -2.97735   3.96753   3.74545 
 H                    -5.11287   4.60039   2.69424 
 C                    -0.70918   0.84675   2.56538 
 C                    -1.21186   0.11241   1.48938 
 H                    -1.0406    2.48494   3.8854 
 C                    -2.94509  -0.48397  -0.14969 
 C                    -2.27261  -0.57544  -1.3403 
 C                    -4.11473  -1.27264   0.03983 
 C                    -2.70291  -1.39818  -2.38496 
 C                    -4.56495  -2.09968  -1.02473 
 C                    -4.8216   -1.29251   1.26114 
 C                    -3.84063  -2.13875  -2.23631 
 C                    -5.72528  -2.88041  -0.83792 
 C                    -5.93747  -2.06808   1.41032 
 H                    -4.46393  -0.69102   2.08258 
 H                    -4.19247  -2.77664  -3.03328 
 C                    -6.3998   -2.86241   0.35027 
 H                    -6.06535  -3.50116  -1.65393 
 H                    -6.46871  -2.07708   2.35033 
 H                    -7.28525  -3.46559   0.4851 
 S                    -0.22703  -1.21701   0.83871 
 O                    -1.06566  -2.37346   0.68594 
 O                     0.95961  -1.38752   1.62899 
 S                    -0.72887   0.27661  -1.53715 
 O                    -0.78109   1.57689  -0.92918 
 O                    -0.30656   0.21183  -2.90189 
 N                     0.25088  -0.71229  -0.65525 
 H                     4.84603   1.68931   0.16241 
 H                    -2.10973  -1.41159  -3.28512 
 H                     0.22914   0.53162   2.98949 
 
 Add virtual bond connecting atoms H47        and N6         Dist= 2.94D+00.
 ITRead=  0  0  0  0  0  0  0  0  0  0  0  0  0  0  0  0  0  0  0  0
 ITRead=  0  0  0  0  0  0  0  0  0  0  0  0  0  0  0  0  0  0  0  0
 ITRead=  0  0  0  0  0  0  0  0  0  0  0  0  0  0  0  0  0  0  0  0
 ITRead=  0  0  0  0  0  0  0  0  0  0  0  0  0  0  0  0  0  0  0  0
 ITRead=  0  0  0  0  0  0  0
 MicOpt= -1 -1 -1 -1 -1 -1 -1 -1 -1 -1 -1 -1 -1 -1 -1 -1 -1 -1 -1 -1
 MicOpt= -1 -1 -1 -1 -1 -1 -1 -1 -1 -1 -1 -1 -1 -1 -1 -1 -1 -1 -1 -1
 MicOpt= -1 -1 -1 -1 -1 -1 -1 -1 -1 -1 -1 -1 -1 -1 -1 -1 -1 -1 -1 -1
 MicOpt= -1 -1 -1 -1 -1 -1 -1 -1 -1 -1 -1 -1 -1 -1 -1 -1 -1 -1 -1 -1
 MicOpt= -1 -1 -1 -1 -1 -1 -1
 NAtoms=     87 NQM=       87 NQMF=       0 NMMI=      0 NMMIF=      0
                NMic=       0 NMicF=      0.
                    Isotopes and Nuclear Properties:
 (Nuclear quadrupole moments (NQMom) in fm**2, nuclear magnetic moments (NMagM)
  in nuclear magnetons)

  Atom         1           2           3           4           5           6           7           8           9          10
 IAtWgt=          12          12          12          12          12          14           1          12          12          12
 AtmWgt=  12.0000000  12.0000000  12.0000000  12.0000000  12.0000000  14.0030740   1.0078250  12.0000000  12.0000000  12.0000000
 NucSpn=           0           0           0           0           0           2           1           0           0           0
 AtZEff=  -0.0000000  -0.0000000  -0.0000000  -0.0000000  -0.0000000  -0.0000000  -0.0000000  -0.0000000  -0.0000000  -0.0000000
 NQMom=    0.0000000   0.0000000   0.0000000   0.0000000   0.0000000   2.0440000   0.0000000   0.0000000   0.0000000   0.0000000
 NMagM=    0.0000000   0.0000000   0.0000000   0.0000000   0.0000000   0.4037610   2.7928460   0.0000000   0.0000000   0.0000000
 AtZNuc=   6.0000000   6.0000000   6.0000000   6.0000000   6.0000000   7.0000000   1.0000000   6.0000000   6.0000000   6.0000000

  Atom        11          12          13          14          15          16          17          18          19          20
 IAtWgt=          12          12           1           1           1          12          12          12          12          12
 AtmWgt=  12.0000000  12.0000000   1.0078250   1.0078250   1.0078250  12.0000000  12.0000000  12.0000000  12.0000000  12.0000000
 NucSpn=           0           0           1           1           1           0           0           0           0           0
 AtZEff=  -0.0000000  -0.0000000  -0.0000000  -0.0000000  -0.0000000  -0.0000000  -0.0000000  -0.0000000  -0.0000000  -0.0000000
 NQMom=    0.0000000   0.0000000   0.0000000   0.0000000   0.0000000   0.0000000   0.0000000   0.0000000   0.0000000   0.0000000
 NMagM=    0.0000000   0.0000000   2.7928460   2.7928460   2.7928460   0.0000000   0.0000000   0.0000000   0.0000000   0.0000000
 AtZNuc=   6.0000000   6.0000000   1.0000000   1.0000000   1.0000000   6.0000000   6.0000000   6.0000000   6.0000000   6.0000000

  Atom        21          22          23          24          25          26          27          28          29          30
 IAtWgt=           1          12           1          12           1           1           1          19          12           1
 AtmWgt=   1.0078250  12.0000000   1.0078250  12.0000000   1.0078250   1.0078250   1.0078250  18.9984032  12.0000000   1.0078250
 NucSpn=           1           0           1           0           1           1           1           1           0           1
 AtZEff=  -0.0000000  -0.0000000  -0.0000000  -0.0000000  -0.0000000  -0.0000000  -0.0000000  -0.0000000  -0.0000000  -0.0000000
 NQMom=    0.0000000   0.0000000   0.0000000   0.0000000   0.0000000   0.0000000   0.0000000   0.0000000   0.0000000   0.0000000
 NMagM=    2.7928460   0.0000000   2.7928460   0.0000000   2.7928460   2.7928460   2.7928460   2.6288670   0.0000000   2.7928460
 AtZNuc=   1.0000000   6.0000000   1.0000000   6.0000000   1.0000000   1.0000000   1.0000000   9.0000000   6.0000000   1.0000000

  Atom        31          32          33          34          35          36          37          38          39          40
 IAtWgt=           1           1          12          12          12           1           1          12           1           1
 AtmWgt=   1.0078250   1.0078250  12.0000000  12.0000000  12.0000000   1.0078250   1.0078250  12.0000000   1.0078250   1.0078250
 NucSpn=           1           1           0           0           0           1           1           0           1           1
 AtZEff=  -0.0000000  -0.0000000  -0.0000000  -0.0000000  -0.0000000  -0.0000000  -0.0000000  -0.0000000  -0.0000000  -0.0000000
 NQMom=    0.0000000   0.0000000   0.0000000   0.0000000   0.0000000   0.0000000   0.0000000   0.0000000   0.0000000   0.0000000
 NMagM=    2.7928460   2.7928460   0.0000000   0.0000000   0.0000000   2.7928460   2.7928460   0.0000000   2.7928460   2.7928460
 AtZNuc=   1.0000000   1.0000000   6.0000000   6.0000000   6.0000000   1.0000000   1.0000000   6.0000000   1.0000000   1.0000000

  Atom        41          42          43          44          45          46          47          48          49          50
 IAtWgt=           1           1           1           1          14          16           1          12          12          12
 AtmWgt=   1.0078250   1.0078250   1.0078250   1.0078250  14.0030740  15.9949146   1.0078250  12.0000000  12.0000000  12.0000000
 NucSpn=           1           1           1           1           2           0           1           0           0           0
 AtZEff=  -0.0000000  -0.0000000  -0.0000000  -0.0000000  -0.0000000  -0.0000000  -0.0000000  -0.0000000  -0.0000000  -0.0000000
 NQMom=    0.0000000   0.0000000   0.0000000   0.0000000   2.0440000   0.0000000   0.0000000   0.0000000   0.0000000   0.0000000
 NMagM=    2.7928460   2.7928460   2.7928460   2.7928460   0.4037610   0.0000000   2.7928460   0.0000000   0.0000000   0.0000000
 AtZNuc=   1.0000000   1.0000000   1.0000000   1.0000000   7.0000000   8.0000000   1.0000000   6.0000000   6.0000000   6.0000000

  Atom        51          52          53          54          55          56          57          58          59          60
 IAtWgt=          12          12          12           1           1          12          12           1           1          12
 AtmWgt=  12.0000000  12.0000000  12.0000000   1.0078250   1.0078250  12.0000000  12.0000000   1.0078250   1.0078250  12.0000000
 NucSpn=           0           0           0           1           1           0           0           1           1           0
 AtZEff=  -0.0000000  -0.0000000  -0.0000000  -0.0000000  -0.0000000  -0.0000000  -0.0000000  -0.0000000  -0.0000000  -0.0000000
 NQMom=    0.0000000   0.0000000   0.0000000   0.0000000   0.0000000   0.0000000   0.0000000   0.0000000   0.0000000   0.0000000
 NMagM=    0.0000000   0.0000000   0.0000000   2.7928460   2.7928460   0.0000000   0.0000000   2.7928460   2.7928460   0.0000000
 AtZNuc=   6.0000000   6.0000000   6.0000000   1.0000000   1.0000000   6.0000000   6.0000000   1.0000000   1.0000000   6.0000000

  Atom        61          62          63          64          65          66          67          68          69          70
 IAtWgt=          12           1          12          12          12          12          12          12          12          12
 AtmWgt=  12.0000000   1.0078250  12.0000000  12.0000000  12.0000000  12.0000000  12.0000000  12.0000000  12.0000000  12.0000000
 NucSpn=           0           1           0           0           0           0           0           0           0           0
 AtZEff=  -0.0000000  -0.0000000  -0.0000000  -0.0000000  -0.0000000  -0.0000000  -0.0000000  -0.0000000  -0.0000000  -0.0000000
 NQMom=    0.0000000   0.0000000   0.0000000   0.0000000   0.0000000   0.0000000   0.0000000   0.0000000   0.0000000   0.0000000
 NMagM=    0.0000000   2.7928460   0.0000000   0.0000000   0.0000000   0.0000000   0.0000000   0.0000000   0.0000000   0.0000000
 AtZNuc=   6.0000000   1.0000000   6.0000000   6.0000000   6.0000000   6.0000000   6.0000000   6.0000000   6.0000000   6.0000000

  Atom        71          72          73          74          75          76          77          78          79          80
 IAtWgt=          12           1           1          12           1           1           1          32          16          16
 AtmWgt=  12.0000000   1.0078250   1.0078250  12.0000000   1.0078250   1.0078250   1.0078250  31.9720718  15.9949146  15.9949146
 NucSpn=           0           1           1           0           1           1           1           0           0           0
 AtZEff=  -0.0000000  -0.0000000  -0.0000000  -0.0000000  -0.0000000  -0.0000000  -0.0000000  -0.0000000  -0.0000000  -0.0000000
 NQMom=    0.0000000   0.0000000   0.0000000   0.0000000   0.0000000   0.0000000   0.0000000   0.0000000   0.0000000   0.0000000
 NMagM=    0.0000000   2.7928460   2.7928460   0.0000000   2.7928460   2.7928460   2.7928460   0.0000000   0.0000000   0.0000000
 AtZNuc=   6.0000000   1.0000000   1.0000000   6.0000000   1.0000000   1.0000000   1.0000000  16.0000000   8.0000000   8.0000000

  Atom        81          82          83          84          85          86          87
 IAtWgt=          32          16          16          14           1           1           1
 AtmWgt=  31.9720718  15.9949146  15.9949146  14.0030740   1.0078250   1.0078250   1.0078250
 NucSpn=           0           0           0           2           1           1           1
 AtZEff=  -0.0000000  -0.0000000  -0.0000000  -0.0000000  -0.0000000  -0.0000000  -0.0000000
 NQMom=    0.0000000   0.0000000   0.0000000   2.0440000   0.0000000   0.0000000   0.0000000
 NMagM=    0.0000000   0.0000000   0.0000000   0.4037610   2.7928460   2.7928460   2.7928460
 AtZNuc=  16.0000000   8.0000000   8.0000000   7.0000000   1.0000000   1.0000000   1.0000000
 Leave Link  101 at Tue Feb  4 21:35:58 2025, MaxMem=  3758096384 cpu:               5.0 elap:               0.3
 (Enter /ihome/crc/install/gaussian/c01/avx2/tar/g16/l103.exe)

 GradGradGradGradGradGradGradGradGradGradGradGradGradGradGradGradGradGrad
 Berny optimization.
 Initialization pass.
                           ----------------------------
                           !    Initial Parameters    !
                           ! (Angstroms and Degrees)  !
 --------------------------                            --------------------------
 ! Name  Definition              Value          Derivative Info.                !
 --------------------------------------------------------------------------------
 ! R1    R(1,2)                  1.382          estimate D2E/DX2                !
 ! R2    R(1,6)                  1.3336         estimate D2E/DX2                !
 ! R3    R(1,8)                  1.476          estimate D2E/DX2                !
 ! R4    R(2,3)                  1.3979         estimate D2E/DX2                !
 ! R5    R(2,85)                 1.078          estimate D2E/DX2                !
 ! R6    R(3,4)                  1.3791         estimate D2E/DX2                !
 ! R7    R(3,29)                 1.4964         estimate D2E/DX2                !
 ! R8    R(4,5)                  1.407          estimate D2E/DX2                !
 ! R9    R(4,7)                  1.0778         estimate D2E/DX2                !
 ! R10   R(5,6)                  1.3376         estimate D2E/DX2                !
 ! R11   R(5,45)                 1.3535         estimate D2E/DX2                !
 ! R12   R(6,47)                 1.5551         estimate D2E/DX2                !
 ! R13   R(8,9)                  1.4005         estimate D2E/DX2                !
 ! R14   R(8,16)                 1.3915         estimate D2E/DX2                !
 ! R15   R(9,10)                 1.3906         estimate D2E/DX2                !
 ! R16   R(9,17)                 1.4726         estimate D2E/DX2                !
 ! R17   R(10,12)                1.3818         estimate D2E/DX2                !
 ! R18   R(10,13)                1.0795         estimate D2E/DX2                !
 ! R19   R(11,12)                1.3823         estimate D2E/DX2                !
 ! R20   R(11,15)                1.0775         estimate D2E/DX2                !
 ! R21   R(11,16)                1.38           estimate D2E/DX2                !
 ! R22   R(12,14)                1.0793         estimate D2E/DX2                !
 ! R23   R(16,28)                1.3495         estimate D2E/DX2                !
 ! R24   R(17,18)                1.3923         estimate D2E/DX2                !
 ! R25   R(17,19)                1.393          estimate D2E/DX2                !
 ! R26   R(18,20)                1.3828         estimate D2E/DX2                !
 ! R27   R(18,21)                1.0798         estimate D2E/DX2                !
 ! R28   R(19,22)                1.383          estimate D2E/DX2                !
 ! R29   R(19,23)                1.0806         estimate D2E/DX2                !
 ! R30   R(20,24)                1.3853         estimate D2E/DX2                !
 ! R31   R(20,25)                1.0803         estimate D2E/DX2                !
 ! R32   R(22,24)                1.3843         estimate D2E/DX2                !
 ! R33   R(22,26)                1.0805         estimate D2E/DX2                !
 ! R34   R(24,27)                1.0804         estimate D2E/DX2                !
 ! R35   R(29,30)                1.0868         estimate D2E/DX2                !
 ! R36   R(29,31)                1.0891         estimate D2E/DX2                !
 ! R37   R(29,32)                1.0893         estimate D2E/DX2                !
 ! R38   R(33,35)                1.5364         estimate D2E/DX2                !
 ! R39   R(33,36)                1.088          estimate D2E/DX2                !
 ! R40   R(33,37)                1.0998         estimate D2E/DX2                !
 ! R41   R(33,45)                1.4424         estimate D2E/DX2                !
 ! R42   R(34,38)                1.5303         estimate D2E/DX2                !
 ! R43   R(34,39)                1.0884         estimate D2E/DX2                !
 ! R44   R(34,40)                1.1006         estimate D2E/DX2                !
 ! R45   R(34,45)                1.4496         estimate D2E/DX2                !
 ! R46   R(35,41)                1.0992         estimate D2E/DX2                !
 ! R47   R(35,42)                1.0918         estimate D2E/DX2                !
 ! R48   R(35,46)                1.4082         estimate D2E/DX2                !
 ! R49   R(38,43)                1.0973         estimate D2E/DX2                !
 ! R50   R(38,44)                1.0914         estimate D2E/DX2                !
 ! R51   R(38,46)                1.4132         estimate D2E/DX2                !
 ! R52   R(47,84)                1.0553         estimate D2E/DX2                !
 ! R53   R(48,49)                1.3669         estimate D2E/DX2                !
 ! R54   R(48,53)                1.4034         estimate D2E/DX2                !
 ! R55   R(48,54)                1.0797         estimate D2E/DX2                !
 ! R56   R(49,50)                1.4115         estimate D2E/DX2                !
 ! R57   R(49,55)                1.0793         estimate D2E/DX2                !
 ! R58   R(50,51)                1.4213         estimate D2E/DX2                !
 ! R59   R(50,56)                1.4222         estimate D2E/DX2                !
 ! R60   R(51,52)                1.4111         estimate D2E/DX2                !
 ! R61   R(51,57)                1.4113         estimate D2E/DX2                !
 ! R62   R(52,53)                1.3663         estimate D2E/DX2                !
 ! R63   R(52,58)                1.0803         estimate D2E/DX2                !
 ! R64   R(53,59)                1.0799         estimate D2E/DX2                !
 ! R65   R(56,61)                1.3715         estimate D2E/DX2                !
 ! R66   R(56,63)                1.4722         estimate D2E/DX2                !
 ! R67   R(57,60)                1.3658         estimate D2E/DX2                !
 ! R68   R(57,62)                1.0797         estimate D2E/DX2                !
 ! R69   R(60,61)                1.3963         estimate D2E/DX2                !
 ! R70   R(60,87)                1.0769         estimate D2E/DX2                !
 ! R71   R(61,78)                1.7778         estimate D2E/DX2                !
 ! R72   R(63,64)                1.3705         estimate D2E/DX2                !
 ! R73   R(63,65)                1.4234         estimate D2E/DX2                !
 ! R74   R(64,66)                1.3976         estimate D2E/DX2                !
 ! R75   R(64,81)                1.7742         estimate D2E/DX2                !
 ! R76   R(65,67)                1.4213         estimate D2E/DX2                !
 ! R77   R(65,68)                1.4113         estimate D2E/DX2                !
 ! R78   R(66,69)                1.3656         estimate D2E/DX2                !
 ! R79   R(66,86)                1.0781         estimate D2E/DX2                !
 ! R80   R(67,69)                1.4121         estimate D2E/DX2                !
 ! R81   R(67,70)                1.411          estimate D2E/DX2                !
 ! R82   R(68,71)                1.3671         estimate D2E/DX2                !
 ! R83   R(68,72)                1.0791         estimate D2E/DX2                !
 ! R84   R(69,73)                1.0797         estimate D2E/DX2                !
 ! R85   R(70,74)                1.3664         estimate D2E/DX2                !
 ! R86   R(70,75)                1.0802         estimate D2E/DX2                !
 ! R87   R(71,74)                1.403          estimate D2E/DX2                !
 ! R88   R(71,76)                1.0798         estimate D2E/DX2                !
 ! R89   R(74,77)                1.0798         estimate D2E/DX2                !
 ! R90   R(78,79)                1.4367         estimate D2E/DX2                !
 ! R91   R(78,80)                1.4359         estimate D2E/DX2                !
 ! R92   R(78,84)                1.6477         estimate D2E/DX2                !
 ! R93   R(81,82)                1.4363         estimate D2E/DX2                !
 ! R94   R(81,83)                1.4301         estimate D2E/DX2                !
 ! R95   R(81,84)                1.6479         estimate D2E/DX2                !
 ! A1    A(2,1,6)              122.1522         estimate D2E/DX2                !
 ! A2    A(2,1,8)              123.001          estimate D2E/DX2                !
 ! A3    A(6,1,8)              114.8465         estimate D2E/DX2                !
 ! A4    A(1,2,3)              118.4142         estimate D2E/DX2                !
 ! A5    A(1,2,85)             120.87           estimate D2E/DX2                !
 ! A6    A(3,2,85)             120.7017         estimate D2E/DX2                !
 ! A7    A(2,3,4)              118.9999         estimate D2E/DX2                !
 ! A8    A(2,3,29)             119.5185         estimate D2E/DX2                !
 ! A9    A(4,3,29)             121.4799         estimate D2E/DX2                !
 ! A10   A(3,4,5)              119.458          estimate D2E/DX2                !
 ! A11   A(3,4,7)              119.7783         estimate D2E/DX2                !
 ! A12   A(5,4,7)              120.7343         estimate D2E/DX2                !
 ! A13   A(4,5,6)              120.2193         estimate D2E/DX2                !
 ! A14   A(4,5,45)             123.3904         estimate D2E/DX2                !
 ! A15   A(6,5,45)             116.3454         estimate D2E/DX2                !
 ! A16   A(1,6,5)              120.5403         estimate D2E/DX2                !
 ! A17   A(1,6,47)             110.9268         estimate D2E/DX2                !
 ! A18   A(5,6,47)             113.7908         estimate D2E/DX2                !
 ! A19   A(1,8,9)              122.4768         estimate D2E/DX2                !
 ! A20   A(1,8,16)             119.5396         estimate D2E/DX2                !
 ! A21   A(9,8,16)             117.9801         estimate D2E/DX2                !
 ! A22   A(8,9,10)             119.4224         estimate D2E/DX2                !
 ! A23   A(8,9,17)             121.2232         estimate D2E/DX2                !
 ! A24   A(10,9,17)            119.3541         estimate D2E/DX2                !
 ! A25   A(9,10,12)            121.1604         estimate D2E/DX2                !
 ! A26   A(9,10,13)            118.9247         estimate D2E/DX2                !
 ! A27   A(12,10,13)           119.8878         estimate D2E/DX2                !
 ! A28   A(12,11,15)           122.0094         estimate D2E/DX2                !
 ! A29   A(12,11,16)           118.5917         estimate D2E/DX2                !
 ! A30   A(15,11,16)           119.3806         estimate D2E/DX2                !
 ! A31   A(10,12,11)           120.1291         estimate D2E/DX2                !
 ! A32   A(10,12,14)           120.0389         estimate D2E/DX2                !
 ! A33   A(11,12,14)           119.8317         estimate D2E/DX2                !
 ! A34   A(8,16,11)            122.7045         estimate D2E/DX2                !
 ! A35   A(8,16,28)            119.0714         estimate D2E/DX2                !
 ! A36   A(11,16,28)           118.1811         estimate D2E/DX2                !
 ! A37   A(9,17,18)            121.3642         estimate D2E/DX2                !
 ! A38   A(9,17,19)            119.7392         estimate D2E/DX2                !
 ! A39   A(18,17,19)           118.8951         estimate D2E/DX2                !
 ! A40   A(17,18,20)           120.2245         estimate D2E/DX2                !
 ! A41   A(17,18,21)           119.5965         estimate D2E/DX2                !
 ! A42   A(20,18,21)           120.1789         estimate D2E/DX2                !
 ! A43   A(17,19,22)           120.6996         estimate D2E/DX2                !
 ! A44   A(17,19,23)           119.3648         estimate D2E/DX2                !
 ! A45   A(22,19,23)           119.9187         estimate D2E/DX2                !
 ! A46   A(18,20,24)           120.4911         estimate D2E/DX2                !
 ! A47   A(18,20,25)           119.7489         estimate D2E/DX2                !
 ! A48   A(24,20,25)           119.7559         estimate D2E/DX2                !
 ! A49   A(19,22,24)           120.0163         estimate D2E/DX2                !
 ! A50   A(19,22,26)           119.8701         estimate D2E/DX2                !
 ! A51   A(24,22,26)           120.1115         estimate D2E/DX2                !
 ! A52   A(20,24,22)           119.6619         estimate D2E/DX2                !
 ! A53   A(20,24,27)           120.199          estimate D2E/DX2                !
 ! A54   A(22,24,27)           120.1392         estimate D2E/DX2                !
 ! A55   A(3,29,30)            111.2511         estimate D2E/DX2                !
 ! A56   A(3,29,31)            110.2374         estimate D2E/DX2                !
 ! A57   A(3,29,32)            109.7241         estimate D2E/DX2                !
 ! A58   A(30,29,31)           108.8978         estimate D2E/DX2                !
 ! A59   A(30,29,32)           108.9107         estimate D2E/DX2                !
 ! A60   A(31,29,32)           107.7389         estimate D2E/DX2                !
 ! A61   A(35,33,36)           108.6982         estimate D2E/DX2                !
 ! A62   A(35,33,37)           109.295          estimate D2E/DX2                !
 ! A63   A(35,33,45)           108.8325         estimate D2E/DX2                !
 ! A64   A(36,33,37)           109.7496         estimate D2E/DX2                !
 ! A65   A(36,33,45)           110.3221         estimate D2E/DX2                !
 ! A66   A(37,33,45)           109.9152         estimate D2E/DX2                !
 ! A67   A(38,34,39)           110.788          estimate D2E/DX2                !
 ! A68   A(38,34,40)           108.4194         estimate D2E/DX2                !
 ! A69   A(38,34,45)           110.9856         estimate D2E/DX2                !
 ! A70   A(39,34,40)           109.3376         estimate D2E/DX2                !
 ! A71   A(39,34,45)           109.6318         estimate D2E/DX2                !
 ! A72   A(40,34,45)           107.6018         estimate D2E/DX2                !
 ! A73   A(33,35,41)           108.9978         estimate D2E/DX2                !
 ! A74   A(33,35,42)           110.4269         estimate D2E/DX2                !
 ! A75   A(33,35,46)           111.1289         estimate D2E/DX2                !
 ! A76   A(41,35,42)           109.9438         estimate D2E/DX2                !
 ! A77   A(41,35,46)           110.0032         estimate D2E/DX2                !
 ! A78   A(42,35,46)           106.3167         estimate D2E/DX2                !
 ! A79   A(34,38,43)           110.2183         estimate D2E/DX2                !
 ! A80   A(34,38,44)           110.3698         estimate D2E/DX2                !
 ! A81   A(34,38,46)           110.4542         estimate D2E/DX2                !
 ! A82   A(43,38,44)           109.6847         estimate D2E/DX2                !
 ! A83   A(43,38,46)           109.8279         estimate D2E/DX2                !
 ! A84   A(44,38,46)           106.2086         estimate D2E/DX2                !
 ! A85   A(5,45,33)            124.5488         estimate D2E/DX2                !
 ! A86   A(5,45,34)            122.0081         estimate D2E/DX2                !
 ! A87   A(33,45,34)           113.4262         estimate D2E/DX2                !
 ! A88   A(35,46,38)           110.1017         estimate D2E/DX2                !
 ! A89   A(49,48,53)           120.4934         estimate D2E/DX2                !
 ! A90   A(49,48,54)           120.1179         estimate D2E/DX2                !
 ! A91   A(53,48,54)           119.3883         estimate D2E/DX2                !
 ! A92   A(48,49,50)           120.7239         estimate D2E/DX2                !
 ! A93   A(48,49,55)           120.3626         estimate D2E/DX2                !
 ! A94   A(50,49,55)           118.911          estimate D2E/DX2                !
 ! A95   A(49,50,51)           118.8261         estimate D2E/DX2                !
 ! A96   A(49,50,56)           122.1163         estimate D2E/DX2                !
 ! A97   A(51,50,56)           119.0353         estimate D2E/DX2                !
 ! A98   A(50,51,52)           118.8775         estimate D2E/DX2                !
 ! A99   A(50,51,57)           119.6439         estimate D2E/DX2                !
 ! A100  A(52,51,57)           121.4781         estimate D2E/DX2                !
 ! A101  A(51,52,53)           120.9004         estimate D2E/DX2                !
 ! A102  A(51,52,58)           118.4654         estimate D2E/DX2                !
 ! A103  A(53,52,58)           120.6328         estimate D2E/DX2                !
 ! A104  A(48,53,52)           120.1616         estimate D2E/DX2                !
 ! A105  A(48,53,59)           119.455          estimate D2E/DX2                !
 ! A106  A(52,53,59)           120.3816         estimate D2E/DX2                !
 ! A107  A(50,56,61)           118.7524         estimate D2E/DX2                !
 ! A108  A(50,56,63)           121.5957         estimate D2E/DX2                !
 ! A109  A(61,56,63)           119.6519         estimate D2E/DX2                !
 ! A110  A(51,57,60)           120.2878         estimate D2E/DX2                !
 ! A111  A(51,57,62)           119.0318         estimate D2E/DX2                !
 ! A112  A(60,57,62)           120.676          estimate D2E/DX2                !
 ! A113  A(57,60,61)           119.8505         estimate D2E/DX2                !
 ! A114  A(57,60,87)           122.5419         estimate D2E/DX2                !
 ! A115  A(61,60,87)           117.5989         estimate D2E/DX2                !
 ! A116  A(56,61,60)           122.3045         estimate D2E/DX2                !
 ! A117  A(56,61,78)           119.2789         estimate D2E/DX2                !
 ! A118  A(60,61,78)           118.4163         estimate D2E/DX2                !
 ! A119  A(56,63,64)           119.985          estimate D2E/DX2                !
 ! A120  A(56,63,65)           121.1734         estimate D2E/DX2                !
 ! A121  A(64,63,65)           118.8109         estimate D2E/DX2                !
 ! A122  A(63,64,66)           122.5188         estimate D2E/DX2                !
 ! A123  A(63,64,81)           119.4254         estimate D2E/DX2                !
 ! A124  A(66,64,81)           117.8821         estimate D2E/DX2                !
 ! A125  A(63,65,67)           118.8816         estimate D2E/DX2                !
 ! A126  A(63,65,68)           122.3182         estimate D2E/DX2                !
 ! A127  A(67,65,68)           118.7736         estimate D2E/DX2                !
 ! A128  A(64,66,69)           119.6279         estimate D2E/DX2                !
 ! A129  A(64,66,86)           117.5164         estimate D2E/DX2                !
 ! A130  A(69,66,86)           122.8551         estimate D2E/DX2                !
 ! A131  A(65,67,69)           119.7534         estimate D2E/DX2                !
 ! A132  A(65,67,70)           118.9027         estimate D2E/DX2                !
 ! A133  A(69,67,70)           121.3393         estimate D2E/DX2                !
 ! A134  A(65,68,71)           120.7477         estimate D2E/DX2                !
 ! A135  A(65,68,72)           119.0058         estimate D2E/DX2                !
 ! A136  A(71,68,72)           120.2446         estimate D2E/DX2                !
 ! A137  A(66,69,67)           120.3788         estimate D2E/DX2                !
 ! A138  A(66,69,73)           120.7639         estimate D2E/DX2                !
 ! A139  A(67,69,73)           118.8482         estimate D2E/DX2                !
 ! A140  A(67,70,74)           120.9171         estimate D2E/DX2                !
 ! A141  A(67,70,75)           118.4804         estimate D2E/DX2                !
 ! A142  A(74,70,75)           120.6005         estimate D2E/DX2                !
 ! A143  A(68,71,74)           120.5121         estimate D2E/DX2                !
 ! A144  A(68,71,76)           120.0866         estimate D2E/DX2                !
 ! A145  A(74,71,76)           119.4007         estimate D2E/DX2                !
 ! A146  A(70,74,71)           120.1189         estimate D2E/DX2                !
 ! A147  A(70,74,77)           120.3977         estimate D2E/DX2                !
 ! A148  A(71,74,77)           119.4803         estimate D2E/DX2                !
 ! A149  A(61,78,79)           108.511          estimate D2E/DX2                !
 ! A150  A(61,78,80)           110.1919         estimate D2E/DX2                !
 ! A151  A(61,78,84)           105.275          estimate D2E/DX2                !
 ! A152  A(79,78,80)           116.4456         estimate D2E/DX2                !
 ! A153  A(79,78,84)           108.6302         estimate D2E/DX2                !
 ! A154  A(80,78,84)           107.1992         estimate D2E/DX2                !
 ! A155  A(64,81,82)           110.8639         estimate D2E/DX2                !
 ! A156  A(64,81,83)           109.9424         estimate D2E/DX2                !
 ! A157  A(64,81,84)            99.7729         estimate D2E/DX2                !
 ! A158  A(82,81,83)           117.1092         estimate D2E/DX2                !
 ! A159  A(82,81,84)           109.7759         estimate D2E/DX2                !
 ! A160  A(83,81,84)           107.9366         estimate D2E/DX2                !
 ! A161  A(47,84,78)           116.9066         estimate D2E/DX2                !
 ! A162  A(47,84,81)           119.7972         estimate D2E/DX2                !
 ! A163  A(78,84,81)           119.7749         estimate D2E/DX2                !
 ! A164  L(6,47,84,9,-1)       179.2347         estimate D2E/DX2                !
 ! A165  L(6,47,84,9,-2)       190.9242         estimate D2E/DX2                !
 ! D1    D(6,1,2,3)             -4.1843         estimate D2E/DX2                !
 ! D2    D(6,1,2,85)           177.1777         estimate D2E/DX2                !
 ! D3    D(8,1,2,3)            176.0191         estimate D2E/DX2                !
 ! D4    D(8,1,2,85)            -2.6189         estimate D2E/DX2                !
 ! D5    D(2,1,6,5)              0.7494         estimate D2E/DX2                !
 ! D6    D(2,1,6,47)           137.3903         estimate D2E/DX2                !
 ! D7    D(8,1,6,5)           -179.4385         estimate D2E/DX2                !
 ! D8    D(8,1,6,47)           -42.7976         estimate D2E/DX2                !
 ! D9    D(2,1,8,9)            -49.392          estimate D2E/DX2                !
 ! D10   D(2,1,8,16)           131.301          estimate D2E/DX2                !
 ! D11   D(6,1,8,9)            130.7977         estimate D2E/DX2                !
 ! D12   D(6,1,8,16)           -48.5093         estimate D2E/DX2                !
 ! D13   D(1,2,3,4)              3.4319         estimate D2E/DX2                !
 ! D14   D(1,2,3,29)          -177.0356         estimate D2E/DX2                !
 ! D15   D(85,2,3,4)          -177.9277         estimate D2E/DX2                !
 ! D16   D(85,2,3,29)            1.6047         estimate D2E/DX2                !
 ! D17   D(2,3,4,5)              0.4723         estimate D2E/DX2                !
 ! D18   D(2,3,4,7)            178.5168         estimate D2E/DX2                !
 ! D19   D(29,3,4,5)          -179.0506         estimate D2E/DX2                !
 ! D20   D(29,3,4,7)            -1.0062         estimate D2E/DX2                !
 ! D21   D(2,3,29,30)         -179.5189         estimate D2E/DX2                !
 ! D22   D(2,3,29,31)          -58.6049         estimate D2E/DX2                !
 ! D23   D(2,3,29,32)           59.8941         estimate D2E/DX2                !
 ! D24   D(4,3,29,30)            0.0016         estimate D2E/DX2                !
 ! D25   D(4,3,29,31)          120.9156         estimate D2E/DX2                !
 ! D26   D(4,3,29,32)         -120.5854         estimate D2E/DX2                !
 ! D27   D(3,4,5,6)             -3.948          estimate D2E/DX2                !
 ! D28   D(3,4,5,45)           173.5233         estimate D2E/DX2                !
 ! D29   D(7,4,5,6)            178.0267         estimate D2E/DX2                !
 ! D30   D(7,4,5,45)            -4.502          estimate D2E/DX2                !
 ! D31   D(4,5,6,1)              3.3621         estimate D2E/DX2                !
 ! D32   D(4,5,6,47)          -132.1439         estimate D2E/DX2                !
 ! D33   D(45,5,6,1)          -174.282          estimate D2E/DX2                !
 ! D34   D(45,5,6,47)           50.212          estimate D2E/DX2                !
 ! D35   D(4,5,45,33)           22.1613         estimate D2E/DX2                !
 ! D36   D(4,5,45,34)         -156.2386         estimate D2E/DX2                !
 ! D37   D(6,5,45,33)         -160.277          estimate D2E/DX2                !
 ! D38   D(6,5,45,34)           21.3232         estimate D2E/DX2                !
 ! D39   D(1,6,84,78)         -100.7989         estimate D2E/DX2                !
 ! D40   D(1,6,84,81)           53.9503         estimate D2E/DX2                !
 ! D41   D(5,6,84,78)           35.8137         estimate D2E/DX2                !
 ! D42   D(5,6,84,81)         -169.4371         estimate D2E/DX2                !
 ! D43   D(1,8,9,10)          -179.198          estimate D2E/DX2                !
 ! D44   D(1,8,9,17)             0.6089         estimate D2E/DX2                !
 ! D45   D(16,8,9,10)            0.1193         estimate D2E/DX2                !
 ! D46   D(16,8,9,17)          179.9261         estimate D2E/DX2                !
 ! D47   D(1,8,16,11)          179.8781         estimate D2E/DX2                !
 ! D48   D(1,8,16,28)           -2.5526         estimate D2E/DX2                !
 ! D49   D(9,8,16,11)            0.5401         estimate D2E/DX2                !
 ! D50   D(9,8,16,28)          178.1094         estimate D2E/DX2                !
 ! D51   D(8,9,10,12)           -0.0702         estimate D2E/DX2                !
 ! D52   D(8,9,10,13)          178.0374         estimate D2E/DX2                !
 ! D53   D(17,9,10,12)        -179.8807         estimate D2E/DX2                !
 ! D54   D(17,9,10,13)          -1.7731         estimate D2E/DX2                !
 ! D55   D(8,9,17,18)          -47.514          estimate D2E/DX2                !
 ! D56   D(8,9,17,19)          132.0513         estimate D2E/DX2                !
 ! D57   D(10,9,17,18)         132.293          estimate D2E/DX2                !
 ! D58   D(10,9,17,19)         -48.1417         estimate D2E/DX2                !
 ! D59   D(9,10,12,11)          -0.6267         estimate D2E/DX2                !
 ! D60   D(9,10,12,14)         179.1775         estimate D2E/DX2                !
 ! D61   D(13,10,12,11)       -178.7162         estimate D2E/DX2                !
 ! D62   D(13,10,12,14)          1.088          estimate D2E/DX2                !
 ! D63   D(15,11,12,10)        179.6795         estimate D2E/DX2                !
 ! D64   D(15,11,12,14)         -0.1251         estimate D2E/DX2                !
 ! D65   D(16,11,12,10)          1.2459         estimate D2E/DX2                !
 ! D66   D(16,11,12,14)       -178.5587         estimate D2E/DX2                !
 ! D67   D(12,11,16,8)          -1.2252         estimate D2E/DX2                !
 ! D68   D(12,11,16,28)       -178.8151         estimate D2E/DX2                !
 ! D69   D(15,11,16,8)        -179.701          estimate D2E/DX2                !
 ! D70   D(15,11,16,28)          2.7092         estimate D2E/DX2                !
 ! D71   D(9,17,18,20)         178.3593         estimate D2E/DX2                !
 ! D72   D(9,17,18,21)          -1.6702         estimate D2E/DX2                !
 ! D73   D(19,17,18,20)         -1.2095         estimate D2E/DX2                !
 ! D74   D(19,17,18,21)        178.761          estimate D2E/DX2                !
 ! D75   D(9,17,19,22)        -178.6783         estimate D2E/DX2                !
 ! D76   D(9,17,19,23)          -0.1758         estimate D2E/DX2                !
 ! D77   D(18,17,19,22)          0.8977         estimate D2E/DX2                !
 ! D78   D(18,17,19,23)        179.4002         estimate D2E/DX2                !
 ! D79   D(17,18,20,24)          0.603          estimate D2E/DX2                !
 ! D80   D(17,18,20,25)       -178.6597         estimate D2E/DX2                !
 ! D81   D(21,18,20,24)       -179.3674         estimate D2E/DX2                !
 ! D82   D(21,18,20,25)          1.3699         estimate D2E/DX2                !
 ! D83   D(17,19,22,24)          0.0295         estimate D2E/DX2                !
 ! D84   D(17,19,22,26)        179.4997         estimate D2E/DX2                !
 ! D85   D(23,19,22,24)       -178.4646         estimate D2E/DX2                !
 ! D86   D(23,19,22,26)          1.0056         estimate D2E/DX2                !
 ! D87   D(18,20,24,22)          0.338          estimate D2E/DX2                !
 ! D88   D(18,20,24,27)       -179.6172         estimate D2E/DX2                !
 ! D89   D(25,20,24,22)        179.6006         estimate D2E/DX2                !
 ! D90   D(25,20,24,27)         -0.3545         estimate D2E/DX2                !
 ! D91   D(19,22,24,20)         -0.6524         estimate D2E/DX2                !
 ! D92   D(19,22,24,27)        179.3028         estimate D2E/DX2                !
 ! D93   D(26,22,24,20)        179.8787         estimate D2E/DX2                !
 ! D94   D(26,22,24,27)         -0.1661         estimate D2E/DX2                !
 ! D95   D(36,33,35,41)         56.1836         estimate D2E/DX2                !
 ! D96   D(36,33,35,42)        -64.6921         estimate D2E/DX2                !
 ! D97   D(36,33,35,46)        177.5763         estimate D2E/DX2                !
 ! D98   D(37,33,35,41)        175.9495         estimate D2E/DX2                !
 ! D99   D(37,33,35,42)         55.0738         estimate D2E/DX2                !
 ! D100  D(37,33,35,46)        -62.6578         estimate D2E/DX2                !
 ! D101  D(45,33,35,41)        -64.003          estimate D2E/DX2                !
 ! D102  D(45,33,35,42)        175.1213         estimate D2E/DX2                !
 ! D103  D(45,33,35,46)         57.3897         estimate D2E/DX2                !
 ! D104  D(35,33,45,5)         129.3455         estimate D2E/DX2                !
 ! D105  D(35,33,45,34)        -52.1333         estimate D2E/DX2                !
 ! D106  D(36,33,45,5)          10.1684         estimate D2E/DX2                !
 ! D107  D(36,33,45,34)       -171.3104         estimate D2E/DX2                !
 ! D108  D(37,33,45,5)        -110.9919         estimate D2E/DX2                !
 ! D109  D(37,33,45,34)         67.5293         estimate D2E/DX2                !
 ! D110  D(39,34,38,43)        -54.6398         estimate D2E/DX2                !
 ! D111  D(39,34,38,44)         66.6691         estimate D2E/DX2                !
 ! D112  D(39,34,38,46)       -176.1839         estimate D2E/DX2                !
 ! D113  D(40,34,38,43)       -174.6228         estimate D2E/DX2                !
 ! D114  D(40,34,38,44)        -53.3139         estimate D2E/DX2                !
 ! D115  D(40,34,38,46)         63.8331         estimate D2E/DX2                !
 ! D116  D(45,34,38,43)         67.4004         estimate D2E/DX2                !
 ! D117  D(45,34,38,44)       -171.2907         estimate D2E/DX2                !
 ! D118  D(45,34,38,46)        -54.1437         estimate D2E/DX2                !
 ! D119  D(38,34,45,5)        -129.9349         estimate D2E/DX2                !
 ! D120  D(38,34,45,33)         51.5014         estimate D2E/DX2                !
 ! D121  D(39,34,45,5)          -7.2234         estimate D2E/DX2                !
 ! D122  D(39,34,45,33)        174.213          estimate D2E/DX2                !
 ! D123  D(40,34,45,5)         111.5931         estimate D2E/DX2                !
 ! D124  D(40,34,45,33)        -66.9706         estimate D2E/DX2                !
 ! D125  D(33,35,46,38)        -62.4942         estimate D2E/DX2                !
 ! D126  D(41,35,46,38)         58.3082         estimate D2E/DX2                !
 ! D127  D(42,35,46,38)        177.3073         estimate D2E/DX2                !
 ! D128  D(34,38,46,35)         60.1676         estimate D2E/DX2                !
 ! D129  D(43,38,46,35)        -61.6073         estimate D2E/DX2                !
 ! D130  D(44,38,46,35)        179.8569         estimate D2E/DX2                !
 ! D131  D(53,48,49,50)          0.0534         estimate D2E/DX2                !
 ! D132  D(53,48,49,55)       -179.3678         estimate D2E/DX2                !
 ! D133  D(54,48,49,50)        179.7906         estimate D2E/DX2                !
 ! D134  D(54,48,49,55)          0.3694         estimate D2E/DX2                !
 ! D135  D(49,48,53,52)          0.7157         estimate D2E/DX2                !
 ! D136  D(49,48,53,59)       -179.7754         estimate D2E/DX2                !
 ! D137  D(54,48,53,52)       -179.0234         estimate D2E/DX2                !
 ! D138  D(54,48,53,59)          0.4855         estimate D2E/DX2                !
 ! D139  D(48,49,50,51)         -1.155          estimate D2E/DX2                !
 ! D140  D(48,49,50,56)       -179.4207         estimate D2E/DX2                !
 ! D141  D(55,49,50,51)        178.2745         estimate D2E/DX2                !
 ! D142  D(55,49,50,56)          0.0087         estimate D2E/DX2                !
 ! D143  D(49,50,51,52)          1.491          estimate D2E/DX2                !
 ! D144  D(49,50,51,57)       -178.7367         estimate D2E/DX2                !
 ! D145  D(56,50,51,52)        179.8111         estimate D2E/DX2                !
 ! D146  D(56,50,51,57)         -0.4166         estimate D2E/DX2                !
 ! D147  D(49,50,56,61)        175.6246         estimate D2E/DX2                !
 ! D148  D(49,50,56,63)         -4.4531         estimate D2E/DX2                !
 ! D149  D(51,50,56,61)         -2.6377         estimate D2E/DX2                !
 ! D150  D(51,50,56,63)        177.2846         estimate D2E/DX2                !
 ! D151  D(50,51,52,53)         -0.7587         estimate D2E/DX2                !
 ! D152  D(50,51,52,58)        179.6798         estimate D2E/DX2                !
 ! D153  D(57,51,52,53)        179.4733         estimate D2E/DX2                !
 ! D154  D(57,51,52,58)         -0.0881         estimate D2E/DX2                !
 ! D155  D(50,51,57,60)          2.1434         estimate D2E/DX2                !
 ! D156  D(50,51,57,62)       -178.6148         estimate D2E/DX2                !
 ! D157  D(52,51,57,60)       -178.0904         estimate D2E/DX2                !
 ! D158  D(52,51,57,62)          1.1514         estimate D2E/DX2                !
 ! D159  D(51,52,53,48)         -0.348          estimate D2E/DX2                !
 ! D160  D(51,52,53,59)       -179.8524         estimate D2E/DX2                !
 ! D161  D(58,52,53,48)        179.2039         estimate D2E/DX2                !
 ! D162  D(58,52,53,59)         -0.3004         estimate D2E/DX2                !
 ! D163  D(50,56,61,60)          4.1299         estimate D2E/DX2                !
 ! D164  D(50,56,61,78)       -175.6908         estimate D2E/DX2                !
 ! D165  D(63,56,61,60)       -175.794          estimate D2E/DX2                !
 ! D166  D(63,56,61,78)          4.3854         estimate D2E/DX2                !
 ! D167  D(50,56,63,64)        116.6363         estimate D2E/DX2                !
 ! D168  D(50,56,63,65)        -65.4042         estimate D2E/DX2                !
 ! D169  D(61,56,63,64)        -63.4421         estimate D2E/DX2                !
 ! D170  D(61,56,63,65)        114.5175         estimate D2E/DX2                !
 ! D171  D(51,57,60,61)         -0.7852         estimate D2E/DX2                !
 ! D172  D(51,57,60,87)       -179.6846         estimate D2E/DX2                !
 ! D173  D(62,57,60,61)        179.9856         estimate D2E/DX2                !
 ! D174  D(62,57,60,87)          1.0862         estimate D2E/DX2                !
 ! D175  D(57,60,61,56)         -2.4422         estimate D2E/DX2                !
 ! D176  D(57,60,61,78)        177.3799         estimate D2E/DX2                !
 ! D177  D(87,60,61,56)        176.5108         estimate D2E/DX2                !
 ! D178  D(87,60,61,78)         -3.667          estimate D2E/DX2                !
 ! D179  D(56,61,78,79)        -47.5896         estimate D2E/DX2                !
 ! D180  D(56,61,78,80)       -176.1641         estimate D2E/DX2                !
 ! D181  D(56,61,78,84)         68.5565         estimate D2E/DX2                !
 ! D182  D(60,61,78,79)        132.5827         estimate D2E/DX2                !
 ! D183  D(60,61,78,80)          4.0082         estimate D2E/DX2                !
 ! D184  D(60,61,78,84)       -111.2712         estimate D2E/DX2                !
 ! D185  D(56,63,64,66)        179.0444         estimate D2E/DX2                !
 ! D186  D(56,63,64,81)          3.9381         estimate D2E/DX2                !
 ! D187  D(65,63,64,66)          1.0368         estimate D2E/DX2                !
 ! D188  D(65,63,64,81)       -174.0694         estimate D2E/DX2                !
 ! D189  D(56,63,65,67)       -179.6733         estimate D2E/DX2                !
 ! D190  D(56,63,65,68)         -1.5701         estimate D2E/DX2                !
 ! D191  D(64,63,65,67)         -1.6903         estimate D2E/DX2                !
 ! D192  D(64,63,65,68)        176.4129         estimate D2E/DX2                !
 ! D193  D(63,64,66,69)          0.5376         estimate D2E/DX2                !
 ! D194  D(63,64,66,86)       -179.7329         estimate D2E/DX2                !
 ! D195  D(81,64,66,69)        175.7155         estimate D2E/DX2                !
 ! D196  D(81,64,66,86)         -4.555          estimate D2E/DX2                !
 ! D197  D(63,64,81,82)        -40.2739         estimate D2E/DX2                !
 ! D198  D(63,64,81,83)       -171.3501         estimate D2E/DX2                !
 ! D199  D(63,64,81,84)         75.3884         estimate D2E/DX2                !
 ! D200  D(66,64,81,82)        144.3941         estimate D2E/DX2                !
 ! D201  D(66,64,81,83)         13.3178         estimate D2E/DX2                !
 ! D202  D(66,64,81,84)        -99.9436         estimate D2E/DX2                !
 ! D203  D(63,65,67,69)          0.84           estimate D2E/DX2                !
 ! D204  D(63,65,67,70)       -179.9228         estimate D2E/DX2                !
 ! D205  D(68,65,67,69)       -177.3313         estimate D2E/DX2                !
 ! D206  D(68,65,67,70)          1.906          estimate D2E/DX2                !
 ! D207  D(63,65,68,71)       -179.6243         estimate D2E/DX2                !
 ! D208  D(63,65,68,72)         -0.1206         estimate D2E/DX2                !
 ! D209  D(67,65,68,71)         -1.5191         estimate D2E/DX2                !
 ! D210  D(67,65,68,72)        177.9846         estimate D2E/DX2                !
 ! D211  D(64,66,69,67)         -1.4209         estimate D2E/DX2                !
 ! D212  D(64,66,69,73)        179.6907         estimate D2E/DX2                !
 ! D213  D(86,66,69,67)        178.8646         estimate D2E/DX2                !
 ! D214  D(86,66,69,73)         -0.0237         estimate D2E/DX2                !
 ! D215  D(65,67,69,66)          0.7267         estimate D2E/DX2                !
 ! D216  D(65,67,69,73)        179.6362         estimate D2E/DX2                !
 ! D217  D(70,67,69,66)       -178.4914         estimate D2E/DX2                !
 ! D218  D(70,67,69,73)          0.418          estimate D2E/DX2                !
 ! D219  D(65,67,70,74)         -0.9468         estimate D2E/DX2                !
 ! D220  D(65,67,70,75)        179.5721         estimate D2E/DX2                !
 ! D221  D(69,67,70,74)        178.2778         estimate D2E/DX2                !
 ! D222  D(69,67,70,75)         -1.2032         estimate D2E/DX2                !
 ! D223  D(65,68,71,74)          0.1307         estimate D2E/DX2                !
 ! D224  D(65,68,71,76)        179.845          estimate D2E/DX2                !
 ! D225  D(72,68,71,74)       -179.3669         estimate D2E/DX2                !
 ! D226  D(72,68,71,76)          0.3474         estimate D2E/DX2                !
 ! D227  D(67,70,74,71)         -0.4502         estimate D2E/DX2                !
 ! D228  D(67,70,74,77)       -179.8124         estimate D2E/DX2                !
 ! D229  D(75,70,74,71)        179.0198         estimate D2E/DX2                !
 ! D230  D(75,70,74,77)         -0.3423         estimate D2E/DX2                !
 ! D231  D(68,71,74,70)          0.8768         estimate D2E/DX2                !
 ! D232  D(68,71,74,77)       -179.7552         estimate D2E/DX2                !
 ! D233  D(76,71,74,70)       -178.8394         estimate D2E/DX2                !
 ! D234  D(76,71,74,77)          0.5286         estimate D2E/DX2                !
 ! D235  D(61,78,84,47)        127.1895         estimate D2E/DX2                !
 ! D236  D(61,78,84,81)        -31.6148         estimate D2E/DX2                !
 ! D237  D(79,78,84,47)       -116.746          estimate D2E/DX2                !
 ! D238  D(79,78,84,81)         84.4496         estimate D2E/DX2                !
 ! D239  D(80,78,84,47)          9.8612         estimate D2E/DX2                !
 ! D240  D(80,78,84,81)       -148.9431         estimate D2E/DX2                !
 ! D241  D(64,81,84,47)        154.8999         estimate D2E/DX2                !
 ! D242  D(64,81,84,78)        -46.9104         estimate D2E/DX2                !
 ! D243  D(82,81,84,47)        -88.6145         estimate D2E/DX2                !
 ! D244  D(82,81,84,78)         69.5752         estimate D2E/DX2                !
 ! D245  D(83,81,84,47)         40.0948         estimate D2E/DX2                !
 ! D246  D(83,81,84,78)       -161.7155         estimate D2E/DX2                !
 --------------------------------------------------------------------------------
 Trust Radius=3.00D-01 FncErr=1.00D-07 GrdErr=1.00D-06 EigMax=2.50D+02 EigMin=1.00D-04
 Number of steps in this run=    516 maximum allowed number of steps=    522.
 GradGradGradGradGradGradGradGradGradGradGradGradGradGradGradGradGradGrad

 Leave Link  103 at Tue Feb  4 21:35:58 2025, MaxMem=  3758096384 cpu:               0.2 elap:               0.0
 (Enter /ihome/crc/install/gaussian/c01/avx2/tar/g16/l202.exe)
 Symmetry turned off by external request.
 Stoichiometry    C42H34FN3O5S2
 Framework group  C1[X(C42H34FN3O5S2)]
 Deg. of freedom   255
 Full point group                 C1      NOp   1
                          Input orientation:                          
 ---------------------------------------------------------------------
 Center     Atomic      Atomic             Coordinates (Angstroms)
 Number     Number       Type             X           Y           Z
 ---------------------------------------------------------------------
      1          6           0        3.343760    0.445820   -0.730660
      2          6           0        4.426920    0.698810    0.089460
      3          6           0        4.949280   -0.354680    0.845450
      4          6           0        4.414420   -1.616610    0.692800
      5          6           0        3.365950   -1.817550   -0.223780
      6          7           0        2.839590   -0.779380   -0.882720
      7          1           0        4.823390   -2.442500    1.251580
      8          6           0        2.659290    1.498800   -1.506160
      9          6           0        2.242000    2.705520   -0.930700
     10          6           0        1.587410    3.647110   -1.717290
     11          6           0        1.760890    2.233870   -3.643590
     12          6           0        1.342680    3.413700   -3.057110
     13          1           0        1.240870    4.560690   -1.258350
     14          1           0        0.821350    4.151500   -3.647640
     15          1           0        1.581710    2.018370   -4.683960
     16          6           0        2.398450    1.295470   -2.857820
     17          6           0        2.479760    2.994490    0.493550
     18          6           0        2.183440    2.059730    1.481920
     19          6           0        3.020290    4.222280    0.868640
     20          6           0        2.447670    2.342800    2.809440
     21          1           0        1.745440    1.112170    1.205700
     22          6           0        3.277050    4.504170    2.198050
     23          1           0        3.262230    4.949620    0.106990
     24          6           0        2.997380    3.561450    3.172360
     25          1           0        2.234810    1.603500    3.567830
     26          1           0        3.704040    5.457820    2.473190
     27          1           0        3.207620    3.775250    4.210280
     28          9           0        2.824900    0.157140   -3.443950
     29          6           0        6.078910   -0.093960    1.791580
     30          1           0        6.383860   -1.004080    2.301300
     31          1           0        6.934300    0.312800    1.254030
     32          1           0        5.773660    0.641540    2.534770
     33          6           0        2.984780   -4.204030    0.311080
     34          6           0        2.183710   -3.296900   -1.781700
     35          6           0        1.593720   -4.833500    0.481780
     36          1           0        3.364380   -3.925620    1.291940
     37          1           0        3.660310   -4.936250   -0.154720
     38          6           0        0.844180   -3.996050   -1.539330
     39          1           0        2.039610   -2.361800   -2.319700
     40          1           0        2.822230   -3.965930   -2.378300
     41          1           0        0.942920   -4.124600    1.012900
     42          1           0        1.664240   -5.767070    1.043520
     43          1           0        0.149230   -3.317590   -1.028700
     44          1           0        0.409820   -4.323380   -2.485550
     45          7           0        2.868270   -3.038330   -0.530340
     46          8           0        1.029550   -5.163890   -0.765430
     47          1           0        1.284960   -0.746700   -0.862780
     48          6           0       -5.063070    2.998130    1.260270
     49          6           0       -4.383900    1.906840    0.795190
     50          6           0       -3.167090    1.507840    1.388880
     51          6           0       -2.645410    2.275830    2.465090
     52          6           0       -3.377440    3.391650    2.923700
     53          6           0       -4.560720    3.743440    2.338060
     54          1           0       -5.991360    3.296640    0.796600
     55          1           0       -4.766970    1.341190   -0.040330
     56          6           0       -2.430110    0.384970    0.921320
     57          6           0       -1.416650    1.908060    3.053770
     58          1           0       -2.977350    3.967530    3.745450
     59          1           0       -5.112870    4.600390    2.694240
     60          6           0       -0.709180    0.846750    2.565380
     61          6           0       -1.211860    0.112410    1.489380
     62          1           0       -1.040600    2.484940    3.885400
     63          6           0       -2.945090   -0.483970   -0.149690
     64          6           0       -2.272610   -0.575440   -1.340300
     65          6           0       -4.114730   -1.272640    0.039830
     66          6           0       -2.702910   -1.398180   -2.384960
     67          6           0       -4.564950   -2.099680   -1.024730
     68          6           0       -4.821600   -1.292510    1.261140
     69          6           0       -3.840630   -2.138750   -2.236310
     70          6           0       -5.725280   -2.880410   -0.837920
     71          6           0       -5.937470   -2.068080    1.410320
     72          1           0       -4.463930   -0.691020    2.082580
     73          1           0       -4.192470   -2.776640   -3.033280
     74          6           0       -6.399800   -2.862410    0.350270
     75          1           0       -6.065350   -3.501160   -1.653930
     76          1           0       -6.468710   -2.077080    2.350330
     77          1           0       -7.285250   -3.465590    0.485100
     78         16           0       -0.227030   -1.217010    0.838710
     79          8           0       -1.065660   -2.373460    0.685940
     80          8           0        0.959610   -1.387520    1.628990
     81         16           0       -0.728870    0.276610   -1.537150
     82          8           0       -0.781090    1.576890   -0.929180
     83          8           0       -0.306560    0.211830   -2.901890
     84          7           0        0.250880   -0.712290   -0.655250
     85          1           0        4.846030    1.689310    0.162410
     86          1           0       -2.109730   -1.411590   -3.285120
     87          1           0        0.229140    0.531620    2.989490
 ---------------------------------------------------------------------
 Rotational constants (GHZ):           0.0758226           0.0536794           0.0423650
 Leave Link  202 at Tue Feb  4 21:35:58 2025, MaxMem=  3758096384 cpu:               0.2 elap:               0.0
 (Enter /ihome/crc/install/gaussian/c01/avx2/tar/g16/l301.exe)
 General basis read from cards:  (5D, 7F)
 Centers:       1      2      3      4      5      8      9     10     11     12
 Centers:      16     17     18     19     20     22     24     29     33     34
 Centers:      35     38     48     49     50     51     52     53     56     57
 Centers:      60     61     63     64     65     66     67     68     69     70
 Centers:      71     74      7     13     14     15     21     23     25     26
 Centers:      27     30     31     32     36     37     39     40     41     42
 Centers:      43     44     47     54     55     58     59     62     72     73
 Centers:      75     76     77     85     86     87      6     45     84     28
 Centers:      46     79     80     82     83
 def2svp
 ****
 Centers:      78     81
 def2tzvp
 ****
 ======================================================================================================
                                       Pseudopotential Parameters
 ======================================================================================================
  Center     Atomic      Valence      Angular      Power
  Number     Number     Electrons     Momentum     of R      Exponent        Coefficient   SO-Coeffient
 ======================================================================================================
    1          6
                                   No pseudopotential on this center.
    2          6
                                   No pseudopotential on this center.
    3          6
                                   No pseudopotential on this center.
    4          6
                                   No pseudopotential on this center.
    5          6
                                   No pseudopotential on this center.
    6          7
                                   No pseudopotential on this center.
    7          1
                                   No pseudopotential on this center.
    8          6
                                   No pseudopotential on this center.
    9          6
                                   No pseudopotential on this center.
   10          6
                                   No pseudopotential on this center.
   11          6
                                   No pseudopotential on this center.
   12          6
                                   No pseudopotential on this center.
   13          1
                                   No pseudopotential on this center.
   14          1
                                   No pseudopotential on this center.
   15          1
                                   No pseudopotential on this center.
   16          6
                                   No pseudopotential on this center.
   17          6
                                   No pseudopotential on this center.
   18          6
                                   No pseudopotential on this center.
   19          6
                                   No pseudopotential on this center.
   20          6
                                   No pseudopotential on this center.
   21          1
                                   No pseudopotential on this center.
   22          6
                                   No pseudopotential on this center.
   23          1
                                   No pseudopotential on this center.
   24          6
                                   No pseudopotential on this center.
   25          1
                                   No pseudopotential on this center.
   26          1
                                   No pseudopotential on this center.
   27          1
                                   No pseudopotential on this center.
   28          9
                                   No pseudopotential on this center.
   29          6
                                   No pseudopotential on this center.
   30          1
                                   No pseudopotential on this center.
   31          1
                                   No pseudopotential on this center.
   32          1
                                   No pseudopotential on this center.
   33          6
                                   No pseudopotential on this center.
   34          6
                                   No pseudopotential on this center.
   35          6
                                   No pseudopotential on this center.
   36          1
                                   No pseudopotential on this center.
   37          1
                                   No pseudopotential on this center.
   38          6
                                   No pseudopotential on this center.
   39          1
                                   No pseudopotential on this center.
   40          1
                                   No pseudopotential on this center.
   41          1
                                   No pseudopotential on this center.
   42          1
                                   No pseudopotential on this center.
   43          1
                                   No pseudopotential on this center.
   44          1
                                   No pseudopotential on this center.
   45          7
                                   No pseudopotential on this center.
   46          8
                                   No pseudopotential on this center.
   47          1
                                   No pseudopotential on this center.
   48          6
                                   No pseudopotential on this center.
   49          6
                                   No pseudopotential on this center.
   50          6
                                   No pseudopotential on this center.
   51          6
                                   No pseudopotential on this center.
   52          6
                                   No pseudopotential on this center.
   53          6
                                   No pseudopotential on this center.
   54          1
                                   No pseudopotential on this center.
   55          1
                                   No pseudopotential on this center.
   56          6
                                   No pseudopotential on this center.
   57          6
                                   No pseudopotential on this center.
   58          1
                                   No pseudopotential on this center.
   59          1
                                   No pseudopotential on this center.
   60          6
                                   No pseudopotential on this center.
   61          6
                                   No pseudopotential on this center.
   62          1
                                   No pseudopotential on this center.
   63          6
                                   No pseudopotential on this center.
   64          6
                                   No pseudopotential on this center.
   65          6
                                   No pseudopotential on this center.
   66          6
                                   No pseudopotential on this center.
   67          6
                                   No pseudopotential on this center.
   68          6
                                   No pseudopotential on this center.
   69          6
                                   No pseudopotential on this center.
   70          6
                                   No pseudopotential on this center.
   71          6
                                   No pseudopotential on this center.
   72          1
                                   No pseudopotential on this center.
   73          1
                                   No pseudopotential on this center.
   74          6
                                   No pseudopotential on this center.
   75          1
                                   No pseudopotential on this center.
   76          1
                                   No pseudopotential on this center.
   77          1
                                   No pseudopotential on this center.
   78         16
                                   No pseudopotential on this center.
   79          8
                                   No pseudopotential on this center.
   80          8
                                   No pseudopotential on this center.
   81         16
                                   No pseudopotential on this center.
   82          8
                                   No pseudopotential on this center.
   83          8
                                   No pseudopotential on this center.
   84          7
                                   No pseudopotential on this center.
   85          1
                                   No pseudopotential on this center.
   86          1
                                   No pseudopotential on this center.
   87          1
                                   No pseudopotential on this center.
 ======================================================================================================
 Ernie: Thresh=  0.10000D-02 Tol=  0.10000D-05 Strict=F.
   958 basis functions,  1651 primitive gaussians,  1019 cartesian basis functions
   194 alpha electrons      194 beta electrons
       nuclear repulsion energy      8453.5811905088 Hartrees.
 IExCor= 4336 DFT=T Ex+Corr=M062X ExCW=0 ScaHFX=  0.540000
 ScaDFX=  1.000000  1.000000  1.000000  1.000000 ScalE2=  1.000000  1.000000
 IRadAn=      5 IRanWt=     -1 IRanGd=            0 ICorTp=0 IEmpDi=131
 NAtoms=   87 NActive=   87 NUniq=   87 SFac= 1.00D+00 NAtFMM=   60 NAOKFM=T Big=T
 Integral buffers will be    131072 words long.
 Raffenetti 2 integral format.
 Two-electron integral symmetry is turned off.
 R6Disp:  Grimme-D3 Dispersion energy=       -0.0128353656 Hartrees.
 Nuclear repulsion after empirical dispersion term =     8453.5683551432 Hartrees.
 ------------------------------------------------------------------------------
 Polarizable Continuum Model (PCM)
 =================================
 Model                : PCM.
 Atomic radii         : SMD-Coulomb.
 Polarization charges : Total charges.
 Charge compensation  : None.
 Solution method      : On-the-fly selection.
 Cavity type          : VdW (van der Waals Surface) (Alpha=1.000).
 Cavity algorithm     : GePol (No added spheres)
                        Default sphere list used, NSphG=   87.
                        Lebedev-Laikov grids with approx.  5.0 points / Ang**2.
                        Smoothing algorithm: York/Karplus (Gamma=1.0000).
                        Polarization charges: spherical gaussians, with
                                              point-specific exponents (IZeta= 3).
                        Self-potential: point-specific (ISelfS= 7).
                        Self-field    : sphere-specific E.n sum rule (ISelfD= 2).
 1st derivatives      : Analytical E(r).r(x)/FMM algorithm (CHGder, D1EAlg=3).
[...]
 67,-0.00001882,0.00000169,0.00000587,0.00000918,-0.00000052,0.00000143
 ,0.,-0.00000050,0.00000101,0.00000175,0.00053658,-0.00020066,-0.000263
 47,-0.00001655,0.00001385,-0.00000594,0.00000251,-0.00000336,-0.000001
 63,0.00000027,-0.00000055,0.00000034,-0.00003157,-0.00003013,-0.000019
 45,0.00001717,0.00001958,0.00004220,-0.00000204,0.00000349,-0.00000212
 ,0.00125552,-0.00284396,-0.00086161,0.00798847,-0.00048890,-0.00575628
 ,-0.00082465,-0.00035193,-0.00026485,-0.14979881,0.01638753,0.14289924
 ,-0.00038638,-0.00592877,0.00171130,0.00017938,0.00038722,-0.00033913,
 -0.00685576,0.00413888,0.01978577,0.00013249,0.00059029,0.00069096,-0.
 00017738,-0.00033922,-0.00019813,-0.00000070,-0.00000571,0.00002372,-0
 .00054941,0.00257964,-0.00181728,-0.00055069,0.00012313,0.00018551,0.0
 0004901,-0.00008158,0.00000880,0.00001074,-0.00001384,0.00002109,-0.00
 003836,0.00001160,0.00009610,0.00032435,0.00008468,-0.00047383,-0.0001
 1251,-0.00001873,0.00009581,0.00001707,0.00000464,0.00016630,-0.000601
 31,-0.00041225,-0.00338569,0.00025604,0.00058762,0.00050576,-0.0023293
 8,-0.00083804,0.00082280,-0.00026462,-0.00017357,0.00077006,0.00000217
 ,0.00000128,0.00000079,0.15191274,-0.00005398,-0.00003491,-0.00001476,
 0.00003372,-0.00002268,0.00002729,-0.00000290,0.00003656,-0.00001227,-
 0.00002292,-0.00003489,-0.00000593,0.00003868,0.00015290,-0.00001067,0
 .00019019,-0.00004829,-0.00002111,0.00000563,-0.00000043,0.00000397,-0
 .00001722,0.00000236,-0.00001781,-0.00000060,-0.00000393,-0.00001208,0
 .00000549,0.00000096,0.00001176,0.00002605,0.00001716,0.00000653,0.000
 00884,-0.00001478,-0.00001292,-0.00000135,0.00000093,0.00000155,-0.000
 00311,-0.00000150,0.,-0.00001205,-0.00000665,0.00001143,-0.00002936,-0
 .00004753,-0.00002020,-0.00000255,0.00000196,-0.00001047,-0.00000015,-
 0.00000634,0.00000346,0.00000178,-0.00000154,0.00000638,0.00000210,0.0
 0000342,-0.00000088,-0.00000797,-0.00000026,-0.00000780,-0.00000038,0.
 00000052,0.00000110,-0.00000078,-0.00000068,-0.00000057,0.00000084,0.0
 0000079,0.00000467,0.00000027,-0.00000135,0.00000077,0.00000033,0.0000
 0081,0.00000087,0.00000050,0.00000064,0.00000097,0.00002827,0.00004484
 ,0.00001995,0.00000180,0.00000142,0.00000204,0.00000182,-0.00000104,0.
 00000119,0.00000120,-0.00000016,0.00000096,0.00000194,-0.00000111,0.00
 000043,-0.00000646,0.00001130,-0.00001946,0.00004436,0.00006710,0.0000
 1254,0.00004269,0.00003353,0.00007563,-0.00000480,-0.00000432,-0.00000
 134,0.00000369,-0.00000567,0.00000337,0.00008335,0.00001799,0.00011144
 ,-0.00003255,0.00005957,0.00000367,-0.00000267,-0.00002465,-0.00000104
 ,-0.00000042,-0.00000484,-0.00000730,-0.00000954,-0.00000012,-0.000011
 73,-0.00001305,0.00004782,0.00003413,0.00007897,-0.00014079,-0.0000434
 0,-0.00008146,-0.00011358,-0.00002988,-0.00010937,0.00001004,-0.000118
 72,-0.00036461,0.00004505,0.00011145,0.00002102,0.00000096,0.00001260,
 0.00001548,0.00000186,-0.00000331,-0.00012379,-0.00005093,-0.00013204,
 0.00000489,-0.00003728,0.00003420,-0.00000887,-0.00000223,-0.00000507,
 0.00000719,0.00000745,-0.00000100,0.00000258,-0.00000608,0.00000096,-0
 .00000019,-0.00000741,-0.00000267,0.00068162,0.00041748,-0.00064687,-0
 .00003468,-0.00001019,-0.00004393,0.00000099,-0.00000722,0.00000125,0.
 00000189,-0.00000216,-0.00000012,-0.00003853,-0.00004006,0.00002327,-0
 .00010675,-0.00011456,0.00005846,0.00000307,0.00000512,-0.00000441,-0.
 00389519,-0.00090339,-0.00314912,0.01144295,0.00058429,-0.01606752,0.0
 0002109,-0.00036813,0.00033198,0.01691639,-0.05243703,-0.03624825,-0.0
 0570194,0.00238508,-0.00293164,0.00028983,-0.00021820,0.00023477,-0.01
 067910,0.00721025,0.01386156,-0.00012134,0.00026204,0.00068740,-0.0000
 3408,0.00001859,-0.00004036,-0.00003744,0.00001399,0.00001798,0.002741
 78,-0.00203559,0.00176783,0.00005302,-0.00042433,0.00021469,-0.0000650
 4,0.00006681,-0.00007910,-0.00001875,0.00003173,-0.00000949,-0.0000540
 9,0.00002275,0.00005524,0.00058292,0.00013682,-0.00071905,-0.00016246,
 -0.00009480,0.00007364,-0.00002745,-0.00002665,0.00022462,0.00227782,-
 0.00221332,-0.00345485,-0.00051800,0.00004723,0.00032433,-0.00069165,0
 .00039723,0.00181167,0.00045106,-0.00007454,0.00112765,0.00000214,0.00
 000071,0.00000181,-0.01301792,0.04744023,-0.00001848,-0.00002269,-0.00
 000204,0.00000853,0.00000809,-0.00000092,-0.00000790,-0.00001483,-0.00
 000017,0.00002962,0.00001891,0.00001217,-0.00006193,-0.00007029,-0.000
 00152,0.00001344,0.00003901,0.00001006,-0.00000043,-0.00000098,0.00000
 054,-0.00001214,0.00000856,-0.00000990,-0.00000004,-0.00000388,-0.0000
 1181,0.00000166,0.00000332,0.00000256,0.00001327,0.00001190,0.00001658
 ,0.00000482,-0.00000834,-0.00000548,-0.00000048,0.00000087,0.00000063,
 -0.00000118,0.00000244,0.00000096,-0.00000191,-0.00000143,0.00000562,-
 0.00000767,-0.00004229,-0.00000577,-0.00000161,0.00000265,-0.00000522,
 -0.00000154,-0.00000509,0.00000216,-0.00000025,-0.00000174,0.00000285,
 -0.00000041,0.00000215,-0.00000091,-0.00000301,0.00000121,-0.00000601,
 -0.00000009,0.00000069,0.00000147,0.00000016,-0.00000023,-0.00000042,0
 .00000055,0.00000167,0.00000207,0.00000082,-0.00000105,-0.00000020,0.0
 0000053,0.00000039,0.00000065,0.00000053,0.00000003,0.00000043,0.00000
 952,0.00003561,0.00000668,0.00000156,0.00000311,0.00000043,0.00000079,
 -0.00000056,0.00000057,0.00000223,-0.00000008,0.00000050,0.00000160,-0
 .00000047,0.00000108,-0.00000518,0.00002983,0.00001214,-0.00005905,-0.
 00000642,-0.00001617,-0.00004505,-0.00003152,-0.00008530,0.00000775,0.
 00000098,0.00000465,0.00000425,-0.00000485,-0.00000424,-0.00006477,0.0
 0005701,-0.00008487,-0.00011074,0.00000376,-0.00000145,0.00004143,-0.0
 0001305,0.00000692,0.00000241,0.00000667,0.00000440,0.00000972,-0.0000
 0469,0.00001405,-0.00001401,-0.00001681,-0.00007437,-0.00009245,0.0001
 4109,0.00007742,0.00009052,0.00003015,0.00001352,0.00013676,-0.0000887
 8,0.00012218,-0.00006732,-0.00006359,-0.00009196,0.00001194,-0.0000045
 7,0.00000262,-0.00001465,0.00001701,-0.00001406,-0.00014835,-0.0001142
 1,-0.00016082,0.00003958,-0.00004904,0.00004270,-0.00001664,-0.0000026
 8,-0.00001750,0.00000506,0.00000152,0.00000852,0.00000336,-0.00000243,
 -0.00000107,-0.00000476,0.00000895,0.00000106,0.00069569,-0.00000066,-
 0.00028048,-0.00004542,0.00002595,-0.00001846,0.00000350,-0.00000728,-
 0.00000221,0.00000155,-0.00000193,0.00000062,-0.00003887,-0.00007761,-
 0.00002887,0.00003624,0.00002742,0.00005427,0.00000089,0.00000345,-0.0
 0000623,-0.00048461,-0.00364702,-0.00005412,0.01028699,-0.00147593,-0.
 01081956,-0.00082962,0.00003203,0.00025271,0.14263204,-0.03777713,-0.2
 4734322,0.00164702,-0.00287529,0.00327473,-0.00009124,0.00022721,-0.00
 020774,-0.00016358,-0.00160855,0.00311426,0.00010175,0.00005105,-0.000
 02605,-0.00008526,-0.00010503,0.00003278,0.00000160,-0.00001258,0.0000
 2053,-0.00156251,0.00200171,-0.00096535,-0.00015647,0.00031610,0.00002
 363,0.00005164,-0.00005743,0.00003278,0.00002038,-0.00001630,0.0000070
 6,-0.00000959,-0.00000986,0.00001050,0.00023878,-0.00014781,-0.0003340
 0,-0.00009549,0.00009877,0.00009360,-0.00002056,0.00003398,0.00006066,
 0.00170579,0.00018206,-0.00349756,-0.00016960,0.00063068,0.00047720,0.
 00124511,0.00184535,0.00140505,-0.00034761,-0.00011403,0.00037006,0.00
 000122,0.00000096,0.00000076,-0.15424739,0.04260915,0.25458214,-0.0000
 1880,0.00000523,0.00001314,0.00001448,-0.00002408,-0.00001011,-0.00000
 620,0.00002237,-0.00000684,-0.00001507,-0.00001201,-0.00001566,0.00003
 143,0.00003631,0.00001017,0.00000598,-0.00001950,-0.00002237,0.0000000
 8,-0.00000117,0.00000100,0.00000293,0.00001245,-0.00001343,0.00000760,
 0.00001968,0.00004443,-0.00000612,-0.00001411,-0.00003343,-0.00000229,
 -0.00000333,-0.00001113,-0.00000148,0.00000649,0.00000143,0.00000601,0
 .00000316,-0.00000070,-0.00000116,0.00000130,-0.00000505,-0.00000048,-
 0.00000049,-0.00000008,-0.00000143,0.00001166,0.00001699,0.00013081,0.
 00010914,0.00010476,-0.00112856,-0.00042436,0.00023271,0.00001673,0.00
 003438,-0.00007027,-0.00008755,-0.00013636,0.00010932,-0.00010461,0.00
 014425,0.00037613,0.00000736,0.00005473,0.00001453,0.00001478,0.000017
 32,-0.00000078,0.00004711,-0.00005648,-0.00012221,-0.00007616,0.000171
 65,-0.00022879,0.00001143,0.00001551,-0.00000715,0.00000769,0.00001960
 ,0.00001841,0.00000163,-0.00001183,-0.00001312,0.00000089,0.00000157,0
 .00000107,0.00000076,-0.00000128,0.00000028,0.00000101,0.00000006,-0.0
 0000011,-0.00000270,-0.00000089,-0.00000054,-0.00000581,0.00000972,-0.
 00000382,0.00000553,-0.00000114,0.00001047,0.00000145,-0.00000021,-0.0
 0000147,0.00000155,0.00000260,-0.00000018,0.00000155,-0.00000276,0.000
 00004,-0.00000765,0.00001417,-0.00000120,-0.00000063,0.00000260,0.0000
 0055,0.00000123,0.00000098,-0.00000395,0.00000109,0.00000548,-0.000004
 20,0.00000099,-0.00000283,-0.00000052,0.00000050,-0.00000291,0.0000029
 0,0.00000120,-0.00000196,-0.00000149,-0.00002505,-0.00002318,0.0000029
 5,0.00000166,-0.00001082,0.00000508,0.00006430,0.00006166,0.00004379,0
 .00006881,0.00026059,0.00018663,0.00012369,-0.00034249,0.00021144,-0.0
 0006203,0.00028176,0.00053686,0.00156119,0.00404639,-0.00140281,-0.000
 17979,-0.00037747,-0.00035395,-0.00041471,0.00004025,0.00010158,0.0000
 0289,0.00001206,-0.00001778,0.00000847,0.00000159,-0.00000830,0.002161
 89,-0.00021050,-0.00129057,-0.00748998,-0.00013002,-0.00877334,0.00004
 393,0.00004779,-0.00003716,-0.00003645,-0.00000029,-0.00004677,-0.2809
 7056,0.03551866,-0.12803500,-0.00301099,0.00065299,-0.00378025,-0.0003
 9517,-0.00177993,0.00186442,0.00001343,0.00029140,-0.00008923,0.000016
 55,-0.00004505,-0.00000494,0.00003167,0.00003414,-0.00003285,0.0000044
 9,-0.00001325,0.00001052,0.00000433,0.00000813,-0.00000045,-0.00000211
 ,-0.00000892,0.00001029,0.00000316,-0.00000817,-0.00001515,0.00000081,
 0.00000052,0.00000788,0.00000116,0.00001166,0.00000793,-0.00000091,-0.
 00000011,-0.00000067,-0.00000292,0.00000174,-0.00000058,-0.00000466,-0
 .00000124,-0.00000317,0.00000025,-0.00000161,0.00000120,-0.00000361,-0
 .00000311,0.00000103,-0.00000058,-0.00000004,0.00000041,-0.00136898,0.
 00035168,0.00107560,0.00020079,-0.00029285,-0.00025069,-0.00124176,0.0
 0192024,0.00121614,-0.00002485,-0.00008648,-0.00002447,-0.00000389,0.0
 0001871,0.00000044,-0.00000135,-0.00000025,-0.00003182,-0.00020489,0.0
 0013623,0.00004960,-0.00000512,0.00000186,0.00000432,-0.00000128,-0.00
 000272,-0.00000281,0.29228109,0.00001448,0.00011410,-0.00003266,0.0000
 0241,-0.00004074,-0.00000586,0.00001509,0.00004763,-0.00000085,-0.0000
 4172,-0.00003067,-0.00001479,0.00012494,0.00001450,-0.00000373,-0.0001
 8285,-0.00004122,0.00006411,-0.00000086,-0.00000166,-0.00000510,-0.000
 00694,0.00000717,-0.00000808,-0.00000143,0.00001743,0.00005506,-0.0000
 0255,0.00000477,-0.00002199,0.00000223,-0.00001357,-0.00001132,0.00001
 146,-0.00000089,0.00001177,-0.00000131,-0.00001742,0.00000822,-0.00000
 104,0.00000093,-0.00000041,0.00000130,-0.00000185,-0.00000118,-0.00001
 225,0.00003806,0.00000947,-0.00000594,-0.00010974,0.00001193,-0.000250
 44,0.00006162,0.00029365,0.00001694,0.00000961,0.00004331,-0.00000572,
 0.00006974,-0.00019174,0.00015079,0.00018060,-0.00015938,-0.00001598,0
 .00000497,-0.00007136,-0.00000721,-0.00000171,-0.00000447,0.00000236,-
 0.00018192,-0.00004927,0.00003816,0.00010067,0.00007731,-0.00000535,0.
 00000841,0.00000302,-0.00001552,0.00000365,0.00000241,0.00000910,-0.00
 004516,-0.00002105,-0.00000426,-0.00000742,0.00000208,0.00000038,-0.00
 000109,-0.00000158,-0.00000434,0.00000107,0.00000063,-0.00000267,0.000
 00426,-0.00000354,0.00001279,-0.00002825,0.00000215,0.00001052,-0.0000
 2513,-0.00004323,0.00001180,-0.00001858,-0.00003061,0.00000781,-0.0000
 0431,-0.00000015,-0.00000685,0.00000974,0.00000622,0.00003027,-0.00000
 514,-0.00001258,0.00000610,-0.00000357,-0.00001199,-0.00000524,0.00001
 222,0.00000559,-0.00000785,0.00000030,0.00000714,-0.00000275,0.0000047
 0,0.00000207,-0.00003619,-0.00005081,-0.00001053,-0.00000189,0.0000073
 4,0.00000884,-0.00011135,-0.00000265,0.00006926,-0.00000417,0.00002038
 ,0.00002557,0.00037119,0.00003367,-0.00004592,-0.00000570,-0.00008424,
 -0.00011892,-0.00024984,-0.00000489,0.00027676,0.00004829,-0.00048603,
 0.00013714,0.00391794,-0.00102879,-0.00475335,0.00059010,0.00030688,0.
 00073155,0.00008097,-0.00043128,0.00020101,0.00002036,0.00002035,-0.00
 001041,0.00004428,-0.00000177,0.00000425,0.00091930,-0.00206668,-0.004
 20815,0.02142036,0.00242002,0.01136405,0.00002306,0.00002871,-0.000092
 61,0.00009849,-0.00000156,0.00004502,0.03506905,-0.05475972,0.01096251
 ,-0.01732810,0.00550068,-0.00920792,-0.00199653,-0.00051296,0.00227455
 ,-0.00080630,0.00058797,-0.00029517,0.00008304,-0.00012317,0.00001417,
 0.00001776,-0.00009486,-0.00017151,0.00002801,-0.00005468,0.00000128,-
 0.00000437,-0.00004257,0.00004210,-0.00001276,0.00001063,-0.00000014,0
 .00000981,-0.00001612,-0.00005199,0.00000563,-0.00000447,-0.00001294,-
 0.00001386,0.00000309,0.00001784,-0.00000311,-0.00000758,-0.00000117,-
 0.00000212,0.00000655,-0.00000364,-0.00000278,0.00001018,0.00000365,-0
 .00000307,-0.00000631,0.00000201,-0.00000265,-0.00000426,0.00000237,-0
 .00000204,-0.00000132,0.00000102,-0.00381684,-0.00122483,-0.00252763,0
 .00055136,0.00002738,0.00015999,0.00195025,-0.00065446,0.00106175,-0.0
 0082968,0.00038824,-0.00046445,0.00016653,-0.00016158,0.00002934,0.000
 11733,-0.00005376,0.00022442,0.00020602,-0.00013518,0.00126154,-0.0000
 1014,-0.00000156,0.00000039,-0.00000728,-0.00001218,-0.00001245,-0.040
 36623,0.05252209,0.00009124,0.00002088,-0.00001299,-0.00004136,0.00003
 035,-0.00001910,0.00002325,-0.00003196,0.00001837,0.00000483,0.0000108
 7,0.00000359,0.00003900,-0.00004607,-0.00001216,-0.00007477,0.00002474
 ,0.00003366,-0.00000288,0.00000346,0.00000017,-0.00000309,-0.00002740,
 0.00002340,-0.00000908,0.00001872,-0.00006118,-0.00000571,0.00000962,0
 .00003206,-0.00000215,0.00000915,0.00001545,-0.00000786,-0.00000762,-0
 .00000934,0.00000339,0.00001086,-0.00000464,0.00000372,-0.00000198,0.0
 0000322,0.00000105,0.00000134,0.00000105,0.00001082,-0.00004152,-0.000
 05225,-0.00013811,0.00012091,-0.00021667,0.00045995,0.00026033,0.00022
 468,-0.00001844,-0.00010578,-0.00007280,-0.00017691,-0.00031624,0.0001
 2445,0.00037587,-0.00004776,-0.00031675,-0.00003680,-0.00010353,0.0001
 0390,-0.00000163,-0.00003029,-0.00000703,0.00004443,0.00012373,-0.0000
 9053,-0.00014050,0.00010135,-0.00005814,-0.00000347,-0.00000357,-0.000
 00570,-0.00002452,-0.00002863,-0.00001766,-0.00001055,0.00004279,0.000
 03865,-0.00000248,-0.00000428,-0.00000333,-0.00000391,0.00000357,-0.00
 000032,-0.00000358,0.00000055,-0.00000215,-0.00000215,-0.00000113,-0.0
 0000040,0.00002131,-0.00004137,0.00002133,-0.00000609,-0.00000831,-0.0
 0004332,0.00000851,-0.00000847,-0.00001055,-0.00000011,-0.00000347,-0.
 00000082,-0.00000813,0.00001205,0.00000057,0.00003260,-0.00002806,-0.0
 0000095,0.00000194,-0.00000291,-0.00000677,-0.00000337,0.00000615,0.00
 001093,-0.00000221,-0.00000514,0.00001029,-0.00000305,0.00000863,0.000
 00262,-0.00002458,-0.00002964,-0.00001868,-0.00000388,0.00000873,0.000
 00774,-0.00003454,0.00005120,0.00004133,-0.00001051,0.00002877,-0.0000
 0066,0.00004909,-0.00011669,-0.00012724,0.00003776,-0.00027921,-0.0000
 9349,-0.00001697,0.00038548,-0.00035314,0.00097233,-0.00047226,-0.0003
 8830,-0.00144779,-0.00481205,0.00456265,0.00006497,0.00030780,0.000261
 46,0.00048029,0.00022233,-0.00010913,-0.00002038,-0.00001451,0.0000259
 4,0.00000522,-0.00001481,0.00002840,-0.00179448,-0.00408697,0.00026124
 ,0.00649698,-0.00178147,0.00841377,-0.00007337,-0.00006792,0.00007205,
 0.00003838,-0.00001694,0.00003458,-0.12807836,0.00956605,-0.11361528,-
 0.01530374,0.00319031,-0.00467756,0.00176744,0.00242111,-0.00260004,-0
 .00087778,0.00016778,0.00007063,-0.00000705,0.00005870,0.00007195,0.00
 001117,-0.00018251,-0.00021838,-0.00000576,-0.00008654,-0.00004675,-0.
 00003613,-0.00004867,0.00006911,0.00001295,0.00001856,-0.00002993,0.00
 004212,0.00001411,-0.00003689,0.00000582,-0.00000741,-0.00003010,-0.00
 001281,-0.00000420,0.00000697,0.00000688,0.00000591,-0.00000041,-0.000
 00108,0.00000389,-0.00000583,0.00000233,0.00000353,0.00001245,-0.00000
 715,-0.00000576,0.00000002,-0.00000311,-0.00000030,0.00000028,-0.00000
 137,-0.00000140,0.00000145,-0.00269894,0.00081878,-0.00324965,0.000517
 00,0.00072501,0.00047177,0.00078047,0.00120302,0.00120102,-0.00047102,
 0.00000212,-0.00021129,0.00016489,0.00003886,0.00002560,0.00007148,0.0
 0002454,0.00007661,0.00052903,-0.00031468,0.00025099,0.00000434,-0.000
 00103,-0.00000379,-0.00000407,-0.00001344,-0.00000547,0.13848492,-0.00
 683272,0.11021113\\0.00000720,-0.00000423,0.00000704,-0.00000408,0.000
 00065,-0.00000672,0.00000354,-0.00001118,0.00000382,0.00000333,0.00000
 136,0.00000374,-0.00000919,-0.00000521,-0.00000306,0.00000744,-0.00000
 499,0.00001018,-0.00000319,-0.00000548,0.00000145,0.00000168,-0.000002
 36,-0.00000557,0.00000467,-0.00000390,0.00000528,0.00000216,0.00000024
 ,-0.00000125,0.00000547,-0.00000376,-0.00000317,0.00000391,-0.00000067
 ,0.00000264,0.00000333,-0.00000002,0.00000089,0.00000439,0.00000065,-0
 .00000024,0.00000331,-0.00000121,-0.00000101,-0.00000108,0.00000106,0.
 00000058,-0.00000031,-0.00000842,0.00000337,0.00000148,0.00000071,-0.0
 0000255,0.00000501,-0.00000096,-0.00000052,0.00000073,-0.00000150,-0.0
 0000065,0.00000298,-0.00000107,-0.00000142,0.00000422,-0.00000197,0.00
 000141,0.00000394,-0.00000191,-0.00000038,0.00000166,-0.00000299,0.000
 00137,-0.00000014,-0.00000321,0.00000180,0.00000393,-0.00000192,0.0000
 0019,0.00000179,-0.00000403,0.00000197,0.00000315,-0.00000196,0.000001
 57,0.00000009,-0.00000525,-0.00000230,-0.00000087,-0.00000686,0.000000
 97,-0.00000075,-0.00000337,0.00000259,-0.00000163,-0.00000643,0.000004
 77,-0.00000205,-0.00000405,0.00000277,-0.00000470,-0.00000481,0.000008
 64,-0.00000336,-0.00000125,-0.00000115,-0.00000387,-0.00000220,0.00000
 161,-0.00000329,-0.00000300,0.00000063,-0.00000198,0.00000108,-0.00000
 085,-0.00000053,-0.00000027,-0.00000126,-0.00000201,-0.00000313,-0.000
 00102,-0.00000576,0.00000038,0.00000160,-0.00000390,-0.00000154,0.0000
 0038,-0.00000015,-0.00000224,-0.00000254,-0.00000181,0.00000085,-0.000
 00092,-0.00000221,0.00000156,-0.00000560,-0.00000489,-0.00000090,0.000
 00058,-0.00000729,-0.00000246,-0.00000253,0.00000274,0.00000429,-0.000
 00111,0.00000185,0.00000342,0.00000103,-0.00000198,0.00000121,-0.00000
 345,0.00000248,0.00000066,-0.00000118,0.00000244,0.00000352,-0.0000003
 4,0.00000339,0.00000536,-0.00000059,0.00000172,0.00000501,-0.00000234,
 -0.00000008,0.00000387,-0.00000229,0.00000506,-0.00000421,-0.00000008,
 0.00000020,0.00000289,-0.00000051,0.00000344,0.00000368,-0.00000025,0.
 00000262,0.00000535,-0.00000130,0.00000250,0.00000154,0.00000019,-0.00
 000055,0.00000300,-0.00000138,0.00000132,0.00000232,-0.00000017,-0.000
 00382,0.00000452,0.00000185,0.00000288,0.00000165,-0.00000167,-0.00000
 283,0.00000366,-0.00000213,-0.00000339,0.00000149,-0.00000189,-0.00000
 254,0.00000412,-0.00000216,-0.00000111,0.00000424,-0.00000114,-0.00000
 015,0.00000315,0.,-0.00000117,0.00000458,-0.00000175,-0.00000205,0.000
 00516,-0.00000135,0.00000010,0.00000624,-0.00000071,-0.00000365,0.0000
 0358,-0.00000218,-0.00000169,0.00000598,-0.00000093,-0.00000372,0.0000
 0427,-0.00000184,-0.00000275,0.00000522,-0.00000063,-0.00000395,0.0000
 0520,-0.00000153,-0.00000529,-0.00000001,0.00001456,-0.00000088,0.0000
 0086,0.00000226,-0.00000237,-0.00000331,-0.00000285,0.00000656,-0.0000
 0262,0.00000456,-0.00000366,0.00000044,0.00000134,0.00000263,0.0000006
 1,0.00000018,-0.00000893,0.00001258,-0.00001527,0.00000119,-0.00000268
 ,-0.00000033,0.00000067,0.00000130,-0.00000065,0.00000241,0.00000005,0
 .00000086\\\@
 The archive entry for this job was punched.


 THE DIFFERENCE BETWEEN A NOOSE AND A HALO IS ONLY 12 INCHES.
 Job cpu time:       0 days 18 hours  4 minutes 35.2 seconds.
 Elapsed time:       0 days  1 hours  7 minutes 50.5 seconds.
 File lengths (MBytes):  RWF=   8669 Int=      0 D2E=      0 Chk=    103 Scr=      1
 Normal termination of Gaussian 16 at Wed Feb  5 00:55:35 2025.
