 Entering Gaussian System, Link 0=g16
 Initial command:
 /opt/packages/gaussian/g16RevC.01/g16/l1.exe "/local/Gau-80252.inp" -scrdir="/local/"
 Entering Link 1 = /opt/packages/gaussian/g16RevC.01/g16/l1.exe PID=     80277.
  
 Copyright (c) 1988-2019, Gaussian, Inc.  All Rights Reserved.
  
 This is part of the Gaussian(R) 16 program.  It is based on
 the Gaussian(R) 09 system (copyright 2009, Gaussian, Inc.),
 the Gaussian(R) 03 system (copyright 2003, Gaussian, Inc.),
 the Gaussian(R) 98 system (copyright 1998, Gaussian, Inc.),
 the Gaussian(R) 94 system (copyright 1995, Gaussian, Inc.),
 the Gaussian 92(TM) system (copyright 1992, Gaussian, Inc.),
 the Gaussian 90(TM) system (copyright 1990, Gaussian, Inc.),
 the Gaussian 88(TM) system (copyright 1988, Gaussian, Inc.),
 the Gaussian 86(TM) system (copyright 1986, Carnegie Mellon
 University), and the Gaussian 82(TM) system (copyright 1983,
 Carnegie Mellon University). Gaussian is a federally registered
 trademark of Gaussian, Inc.
  
 This software contains proprietary and confidential information,
 including trade secrets, belonging to Gaussian, Inc.
  
 This software is provided under written license and may be
 used, copied, transmitted, or stored only in accord with that
 written license.
  
 The following legend is applicable only to US Government
 contracts under FAR:
  
                    RESTRICTED RIGHTS LEGEND
  
 Use, reproduction and disclosure by the US Government is
 subject to restrictions as set forth in subparagraphs (a)
 and (c) of the Commercial Computer Software - Restricted
 Rights clause in FAR 52.227-19.
  
 Gaussian, Inc.
 340 Quinnipiac St., Bldg. 40, Wallingford CT 06492
  
  
 ---------------------------------------------------------------
 Warning -- This program may not be used in any manner that
 competes with the business of Gaussian, Inc. or will provide
 assistance to any competitor of Gaussian, Inc.  The licensee
 of this program is prohibited from giving any competitor of
 Gaussian, Inc. access to this program.  By using this program,
 the user acknowledges that Gaussian, Inc. is engaged in the
 business of creating and licensing software in the field of
 computational chemistry and represents and warrants to the
 licensee that it is not a competitor of Gaussian, Inc. and that
 it will not use this program in any manner prohibited above.
 ---------------------------------------------------------------
  

 Cite this work as:
 Gaussian 16, Revision C.01,
 M. J. Frisch, G. W. Trucks, H. B. Schlegel, G. E. Scuseria, 
 M. A. Robb, J. R. Cheeseman, G. Scalmani, V. Barone, 
 G. A. Petersson, H. Nakatsuji, X. Li, M. Caricato, A. V. Marenich, 
 J. Bloino, B. G. Janesko, R. Gomperts, B. Mennucci, H. P. Hratchian, 
 J. V. Ortiz, A. F. Izmaylov, J. L. Sonnenberg, D. Williams-Young, 
 F. Ding, F. Lipparini, F. Egidi, J. Goings, B. Peng, A. Petrone, 
 T. Henderson, D. Ranasinghe, V. G. Zakrzewski, J. Gao, N. Rega, 
 G. Zheng, W. Liang, M. Hada, M. Ehara, K. Toyota, R. Fukuda, 
 J. Hasegawa, M. Ishida, T. Nakajima, Y. Honda, O. Kitao, H. Nakai, 
 T. Vreven, K. Throssell, J. A. Montgomery, Jr., J. E. Peralta, 
 F. Ogliaro, M. J. Bearpark, J. J. Heyd, E. N. Brothers, K. N. Kudin, 
 V. N. Staroverov, T. A. Keith, R. Kobayashi, J. Normand, 
 K. Raghavachari, A. P. Rendell, J. C. Burant, S. S. Iyengar, 
 J. Tomasi, M. Cossi, J. M. Millam, M. Klene, C. Adamo, R. Cammi, 
 J. W. Ochterski, R. L. Martin, K. Morokuma, O. Farkas, 
 J. B. Foresman, and D. J. Fox, Gaussian, Inc., Wallingford CT, 2019.
 
 ******************************************
 Gaussian 16:  ES64L-G16RevC.01  3-Jul-2019
                11-Jun-2024 
 ******************************************
 %nprocshared=32
 Will use up to   32 processors via shared memory.
 %mem=62GB
 ----------------------------------------------------------------------
 #p m062x genecp opt freq nosymm scrf=(smd,solvent=propylethanoate) emp
 iricaldispersion=gd3 scf=(xqc,maxcycles=128)
 ----------------------------------------------------------------------
 1/18=20,19=15,26=3,38=1/1,3;
 2/9=110,12=2,15=1,17=6,18=5,40=1/2;
 3/5=7,11=2,16=1,17=8,25=1,30=1,70=32201,71=1,72=169,74=-55,124=31/1,2,3;
 4//1;
 5/5=2,7=128,8=3,13=1,38=5,53=169/2,8;
 6/7=2,8=2,9=2,10=2,28=1/1;
 7/30=1/1,2,3,16;
 1/18=20,19=15,26=3/3(2);
 2/9=110,15=1/2;
 99//99;
 2/9=110,15=1/2;
 3/5=7,6=1,11=2,16=1,17=8,25=1,30=1,70=32205,71=1,72=169,74=-55,82=7,124=31/1,2,3;
 4/5=5,16=3,69=1/1;
 5/5=2,7=128,8=3,13=1,38=5,53=169/2,8;
 7/30=1/1,2,3,16;
 1/18=20,19=15,26=3/3(-5);
 2/9=110,15=1/2;
 6/7=2,8=2,9=2,10=2,19=2,28=1/1;
 99/9=1/99;
 Leave Link    1 at Tue Jun 11 17:54:37 2024, MaxMem=  8321499136 cpu:               0.8 elap:               0.0
 (Enter /opt/packages/gaussian/g16RevC.01/g16/l101.exe)
 -------------------
 Title Card Required
 -------------------
 Symbolic Z-matrix:
 Charge =  0 Multiplicity = 1
 C                     1.67631  -1.7992   -0.29934 
 C                     0.31654  -2.15747  -0.81073 
 C                    -0.54358  -2.89151   0.15002 
 C                    -0.02912  -3.27184   1.33995 
 C                     1.37404  -3.04901   1.61766 
 N                     2.15248  -2.27981   0.7961 
 H                    -0.67121  -3.77245   2.05932 
 C                     2.55006  -0.87672  -1.07546 
 C                     3.96219  -1.0197   -1.10629 
 C                     4.73651  -0.05801  -1.76433 
 C                     2.77413   1.18781  -2.38979 
 C                     4.15421   1.03737  -2.39865 
 H                     5.81848  -0.19161  -1.79717 
 H                     4.77975   1.77022  -2.91011 
 H                     2.26673   2.02584  -2.86857 
 C                     2.00438   0.2359   -1.7359 
 C                     4.69482  -2.17721  -0.5147 
 C                     5.77125  -1.94412   0.34963 
 C                     4.38013  -3.498    -0.86382 
 C                     6.5108   -3.00938   0.86751 
 H                     6.02261  -0.91889   0.62935 
 C                     5.11984  -4.55954  -0.34987 
 H                     3.55189  -3.6902   -1.5502 
 C                     6.18798  -4.31948   0.51924 
 H                     7.34311  -2.81025   1.54508 
 H                     4.86719  -5.58234  -0.63607 
 H                     6.76698  -5.15365   0.91982 
 F                     0.6889    0.44106  -1.72747 
 C                    -1.95977  -3.16444  -0.23295 
 H                    -2.42635  -2.25032  -0.62943 
 H                    -1.99263  -3.93407  -1.0204 
 H                    -2.53468  -3.52236   0.63008 
 C                     1.31827  -4.31746   3.74174 
 C                     3.41722  -3.40003   2.92555 
 C                     2.0367   -5.64845   3.93469 
 H                     0.26301  -4.48746   3.52064 
 H                     1.39247  -3.71967   4.66319 
 C                     4.03182  -4.77642   3.15179 
 H                     3.88334  -2.89488   2.07472 
 H                     3.53454  -2.7854    3.83154 
 H                     1.90374  -6.26894   3.02782 
 H                     1.59188  -6.17654   4.78781 
 H                     3.96362  -5.36541   2.21782 
 H                     5.09161  -4.66017   3.41352 
 N                     1.97578  -3.55217   2.67944 
 O                     3.39806  -5.45566   4.20605 
 I                     0.62865  -3.36129  -2.6199 
 H                    -0.22952  -1.28384  -1.18359 
 C                    -1.89337   6.66608  -1.38899 
 C                    -2.21427   5.47781  -0.7788 
 C                    -1.19896   4.55519  -0.39448 
 C                     0.15939   4.88308  -0.6839 
 C                     0.4599    6.12774  -1.30427 
 C                    -0.54096   7.00239  -1.64646 
 H                    -2.68709   7.35461  -1.68308 
 H                    -3.26004   5.22803  -0.59803 
 C                    -1.50143   3.30611   0.24596 
 C                     1.18949   3.95843  -0.36241 
 H                     1.50544   6.36664  -1.50997 
 H                    -0.30079   7.95247  -2.12656 
 C                     0.88212   2.73961   0.18282 
 C                    -0.46441   2.4199    0.46935 
 H                     2.22682   4.22622  -0.57458 
 C                    -2.90975   2.9933    0.64648 
 C                    -3.60325   1.92106   0.11671 
 C                    -3.56636   3.80492   1.63303 
 C                    -4.94431   1.6371    0.45991 
 C                    -4.92703   3.53351   1.96761 
 C                    -2.90027   4.86175   2.31902 
 C                    -5.60042   2.44463   1.35144 
 C                    -5.58444   4.34623   2.93305 
 C                    -3.5588    5.62084   3.25563 
 H                    -1.84981   5.06037   2.10612 
 H                    -6.64174   2.25013   1.61581 
 C                    -4.9198    5.36988   3.56055 
 H                    -6.62835   4.12973   3.16934 
 H                    -3.02735   6.42063   3.77386 
 H                    -5.43148   5.98494   4.30263 
 S                    -0.80323   0.76744   1.092 
 O                    -1.51433   0.92389   2.35898 
 O                     0.4849    0.06035   1.15848 
 S                    -2.76503   0.75431  -0.96235 
 O                    -2.14155   1.52465  -2.03593 
 O                    -3.74078  -0.26006  -1.36576 
 N                    -1.68971   0.0215   -0.01767 
 H                    -5.42774   0.77582  -0.00133 
 H                     1.65318   2.00335   0.41266 
 
 Add virtual bond connecting atoms N85        and H48        Dist= 4.31D+00.
 ITRead=  0  0  0  0  0  0  0  0  0  0  0  0  0  0  0  0  0  0  0  0
 ITRead=  0  0  0  0  0  0  0  0  0  0  0  0  0  0  0  0  0  0  0  0
 ITRead=  0  0  0  0  0  0  0  0  0  0  0  0  0  0  0  0  0  0  0  0
 ITRead=  0  0  0  0  0  0  0  0  0  0  0  0  0  0  0  0  0  0  0  0
 ITRead=  0  0  0  0  0  0  0
 MicOpt= -1 -1 -1 -1 -1 -1 -1 -1 -1 -1 -1 -1 -1 -1 -1 -1 -1 -1 -1 -1
 MicOpt= -1 -1 -1 -1 -1 -1 -1 -1 -1 -1 -1 -1 -1 -1 -1 -1 -1 -1 -1 -1
 MicOpt= -1 -1 -1 -1 -1 -1 -1 -1 -1 -1 -1 -1 -1 -1 -1 -1 -1 -1 -1 -1
 MicOpt= -1 -1 -1 -1 -1 -1 -1 -1 -1 -1 -1 -1 -1 -1 -1 -1 -1 -1 -1 -1
 MicOpt= -1 -1 -1 -1 -1 -1 -1
 NAtoms=     87 NQM=       87 NQMF=       0 NMMI=      0 NMMIF=      0
                NMic=       0 NMicF=      0.
                    Isotopes and Nuclear Properties:
 (Nuclear quadrupole moments (NQMom) in fm**2, nuclear magnetic moments (NMagM)
  in nuclear magnetons)

  Atom         1           2           3           4           5           6           7           8           9          10
 IAtWgt=          12          12          12          12          12          14           1          12          12          12
 AtmWgt=  12.0000000  12.0000000  12.0000000  12.0000000  12.0000000  14.0030740   1.0078250  12.0000000  12.0000000  12.0000000
 NucSpn=           0           0           0           0           0           2           1           0           0           0
 AtZEff=   0.0000000   0.0000000   0.0000000   0.0000000   0.0000000   0.0000000   0.0000000   0.0000000   0.0000000   0.0000000
 NQMom=    0.0000000   0.0000000   0.0000000   0.0000000   0.0000000   2.0440000   0.0000000   0.0000000   0.0000000   0.0000000
 NMagM=    0.0000000   0.0000000   0.0000000   0.0000000   0.0000000   0.4037610   2.7928460   0.0000000   0.0000000   0.0000000
 AtZNuc=   6.0000000   6.0000000   6.0000000   6.0000000   6.0000000   7.0000000   1.0000000   6.0000000   6.0000000   6.0000000

  Atom        11          12          13          14          15          16          17          18          19          20
 IAtWgt=          12          12           1           1           1          12          12          12          12          12
 AtmWgt=  12.0000000  12.0000000   1.0078250   1.0078250   1.0078250  12.0000000  12.0000000  12.0000000  12.0000000  12.0000000
 NucSpn=           0           0           1           1           1           0           0           0           0           0
 AtZEff=   0.0000000   0.0000000   0.0000000   0.0000000   0.0000000   0.0000000   0.0000000   0.0000000   0.0000000   0.0000000
 NQMom=    0.0000000   0.0000000   0.0000000   0.0000000   0.0000000   0.0000000   0.0000000   0.0000000   0.0000000   0.0000000
 NMagM=    0.0000000   0.0000000   2.7928460   2.7928460   2.7928460   0.0000000   0.0000000   0.0000000   0.0000000   0.0000000
 AtZNuc=   6.0000000   6.0000000   1.0000000   1.0000000   1.0000000   6.0000000   6.0000000   6.0000000   6.0000000   6.0000000

  Atom        21          22          23          24          25          26          27          28          29          30
 IAtWgt=           1          12           1          12           1           1           1          19          12           1
 AtmWgt=   1.0078250  12.0000000   1.0078250  12.0000000   1.0078250   1.0078250   1.0078250  18.9984032  12.0000000   1.0078250
 NucSpn=           1           0           1           0           1           1           1           1           0           1
 AtZEff=   0.0000000   0.0000000   0.0000000   0.0000000   0.0000000   0.0000000   0.0000000   0.0000000   0.0000000   0.0000000
 NQMom=    0.0000000   0.0000000   0.0000000   0.0000000   0.0000000   0.0000000   0.0000000   0.0000000   0.0000000   0.0000000
 NMagM=    2.7928460   0.0000000   2.7928460   0.0000000   2.7928460   2.7928460   2.7928460   2.6288670   0.0000000   2.7928460
 AtZNuc=   1.0000000   6.0000000   1.0000000   6.0000000   1.0000000   1.0000000   1.0000000   9.0000000   6.0000000   1.0000000

  Atom        31          32          33          34          35          36          37          38          39          40
 IAtWgt=           1           1          12          12          12           1           1          12           1           1
 AtmWgt=   1.0078250   1.0078250  12.0000000  12.0000000  12.0000000   1.0078250   1.0078250  12.0000000   1.0078250   1.0078250
 NucSpn=           1           1           0           0           0           1           1           0           1           1
 AtZEff=   0.0000000   0.0000000   0.0000000   0.0000000   0.0000000   0.0000000   0.0000000   0.0000000   0.0000000   0.0000000
 NQMom=    0.0000000   0.0000000   0.0000000   0.0000000   0.0000000   0.0000000   0.0000000   0.0000000   0.0000000   0.0000000
 NMagM=    2.7928460   2.7928460   0.0000000   0.0000000   0.0000000   2.7928460   2.7928460   0.0000000   2.7928460   2.7928460
 AtZNuc=   1.0000000   1.0000000   6.0000000   6.0000000   6.0000000   1.0000000   1.0000000   6.0000000   1.0000000   1.0000000

  Atom        41          42          43          44          45          46          47          48          49          50
 IAtWgt=           1           1           1           1          14          16         127           1          12          12
 AtmWgt=   1.0078250   1.0078250   1.0078250   1.0078250  14.0030740  15.9949146 126.9004000   1.0078250  12.0000000  12.0000000
 NucSpn=           1           1           1           1           2           0           5           1           0           0
 AtZEff=   0.0000000   0.0000000   0.0000000   0.0000000   0.0000000   0.0000000   0.0000000   0.0000000   0.0000000   0.0000000
 NQMom=    0.0000000   0.0000000   0.0000000   0.0000000   2.0440000   0.0000000 -71.0000000   0.0000000   0.0000000   0.0000000
 NMagM=    2.7928460   2.7928460   2.7928460   2.7928460   0.4037610   0.0000000   2.8132800   2.7928460   0.0000000   0.0000000
 AtZNuc=   1.0000000   1.0000000   1.0000000   1.0000000   7.0000000   8.0000000  53.0000000   1.0000000   6.0000000   6.0000000

  Atom        51          52          53          54          55          56          57          58          59          60
 IAtWgt=          12          12          12          12           1           1          12          12           1           1
 AtmWgt=  12.0000000  12.0000000  12.0000000  12.0000000   1.0078250   1.0078250  12.0000000  12.0000000   1.0078250   1.0078250
 NucSpn=           0           0           0           0           1           1           0           0           1           1
 AtZEff=   0.0000000   0.0000000   0.0000000   0.0000000   0.0000000   0.0000000   0.0000000   0.0000000   0.0000000   0.0000000
 NQMom=    0.0000000   0.0000000   0.0000000   0.0000000   0.0000000   0.0000000   0.0000000   0.0000000   0.0000000   0.0000000
 NMagM=    0.0000000   0.0000000   0.0000000   0.0000000   2.7928460   2.7928460   0.0000000   0.0000000   2.7928460   2.7928460
 AtZNuc=   6.0000000   6.0000000   6.0000000   6.0000000   1.0000000   1.0000000   6.0000000   6.0000000   1.0000000   1.0000000

  Atom        61          62          63          64          65          66          67          68          69          70
 IAtWgt=          12          12           1          12          12          12          12          12          12          12
 AtmWgt=  12.0000000  12.0000000   1.0078250  12.0000000  12.0000000  12.0000000  12.0000000  12.0000000  12.0000000  12.0000000
 NucSpn=           0           0           1           0           0           0           0           0           0           0
 AtZEff=   0.0000000   0.0000000   0.0000000   0.0000000   0.0000000   0.0000000   0.0000000   0.0000000   0.0000000   0.0000000
 NQMom=    0.0000000   0.0000000   0.0000000   0.0000000   0.0000000   0.0000000   0.0000000   0.0000000   0.0000000   0.0000000
 NMagM=    0.0000000   0.0000000   2.7928460   0.0000000   0.0000000   0.0000000   0.0000000   0.0000000   0.0000000   0.0000000
 AtZNuc=   6.0000000   6.0000000   1.0000000   6.0000000   6.0000000   6.0000000   6.0000000   6.0000000   6.0000000   6.0000000

  Atom        71          72          73          74          75          76          77          78          79          80
 IAtWgt=          12          12           1           1          12           1           1           1          32          16
 AtmWgt=  12.0000000  12.0000000   1.0078250   1.0078250  12.0000000   1.0078250   1.0078250   1.0078250  31.9720718  15.9949146
 NucSpn=           0           0           1           1           0           1           1           1           0           0
 AtZEff=   0.0000000   0.0000000   0.0000000   0.0000000   0.0000000   0.0000000   0.0000000   0.0000000   0.0000000   0.0000000
 NQMom=    0.0000000   0.0000000   0.0000000   0.0000000   0.0000000   0.0000000   0.0000000   0.0000000   0.0000000   0.0000000
 NMagM=    0.0000000   0.0000000   2.7928460   2.7928460   0.0000000   2.7928460   2.7928460   2.7928460   0.0000000   0.0000000
 AtZNuc=   6.0000000   6.0000000   1.0000000   1.0000000   6.0000000   1.0000000   1.0000000   1.0000000  16.0000000   8.0000000

  Atom        81          82          83          84          85          86          87
 IAtWgt=          16          32          16          16          14           1           1
 AtmWgt=  15.9949146  31.9720718  15.9949146  15.9949146  14.0030740   1.0078250   1.0078250
 NucSpn=           0           0           0           0           2           1           1
 AtZEff=   0.0000000   0.0000000   0.0000000   0.0000000   0.0000000   0.0000000   0.0000000
 NQMom=    0.0000000   0.0000000   0.0000000   0.0000000   2.0440000   0.0000000   0.0000000
 NMagM=    0.0000000   0.0000000   0.0000000   0.0000000   0.4037610   2.7928460   2.7928460
 AtZNuc=   8.0000000  16.0000000   8.0000000   8.0000000   7.0000000   1.0000000   1.0000000
 Leave Link  101 at Tue Jun 11 17:54:37 2024, MaxMem=  8321499136 cpu:               4.8 elap:               0.2
 (Enter /opt/packages/gaussian/g16RevC.01/g16/l103.exe)

 GradGradGradGradGradGradGradGradGradGradGradGradGradGradGradGradGradGrad
 Berny optimization.
 Initialization pass.
                           ----------------------------
                           !    Initial Parameters    !
                           ! (Angstroms and Degrees)  !
 --------------------------                            --------------------------
 ! Name  Definition              Value          Derivative Info.                !
 --------------------------------------------------------------------------------
 ! R1    R(1,2)                  1.4963         estimate D2E/DX2                !
 ! R2    R(1,6)                  1.2875         estimate D2E/DX2                !
 ! R3    R(1,8)                  1.4889         estimate D2E/DX2                !
 ! R4    R(2,3)                  1.4838         estimate D2E/DX2                !
 ! R5    R(2,47)                 2.1954         estimate D2E/DX2                !
 ! R6    R(2,48)                 1.0956         estimate D2E/DX2                !
 ! R7    R(3,4)                  1.351          estimate D2E/DX2                !
 ! R8    R(3,29)                 1.4922         estimate D2E/DX2                !
 ! R9    R(4,5)                  1.4476         estimate D2E/DX2                !
 ! R10   R(4,7)                  1.0865         estimate D2E/DX2                !
 ! R11   R(5,6)                  1.3684         estimate D2E/DX2                !
 ! R12   R(5,45)                 1.3201         estimate D2E/DX2                !
 ! R13   R(8,9)                  1.4197         estimate D2E/DX2                !
 ! R14   R(8,16)                 1.4042         estimate D2E/DX2                !
 ! R15   R(9,10)                 1.3991         estimate D2E/DX2                !
 ! R16   R(9,17)                 1.4922         estimate D2E/DX2                !
 ! R17   R(10,12)                1.3933         estimate D2E/DX2                !
 ! R18   R(10,13)                1.0907         estimate D2E/DX2                !
 ! R19   R(11,12)                1.3883         estimate D2E/DX2                !
 ! R20   R(11,15)                1.0904         estimate D2E/DX2                !
 ! R21   R(11,16)                1.3879         estimate D2E/DX2                !
 ! R22   R(12,14)                1.0909         estimate D2E/DX2                !
 ! R23   R(16,28)                1.3314         estimate D2E/DX2                !
 ! R24   R(17,18)                1.4            estimate D2E/DX2                !
 ! R25   R(17,19)                1.4019         estimate D2E/DX2                !
 ! R26   R(18,20)                1.3964         estimate D2E/DX2                !
 ! R27   R(18,21)                1.092          estimate D2E/DX2                !
 ! R28   R(19,22)                1.3922         estimate D2E/DX2                !
 ! R29   R(19,23)                1.0927         estimate D2E/DX2                !
 ! R30   R(20,24)                1.3935         estimate D2E/DX2                !
 ! R31   R(20,25)                1.0916         estimate D2E/DX2                !
 ! R32   R(22,24)                1.3978         estimate D2E/DX2                !
 ! R33   R(22,26)                1.0917         estimate D2E/DX2                !
 ! R34   R(24,27)                1.0916         estimate D2E/DX2                !
 ! R35   R(29,30)                1.1002         estimate D2E/DX2                !
 ! R36   R(29,31)                1.1016         estimate D2E/DX2                !
 ! R37   R(29,32)                1.097          estimate D2E/DX2                !
 ! R38   R(33,35)                1.5248         estimate D2E/DX2                !
 ! R39   R(33,36)                1.0915         estimate D2E/DX2                !
 ! R40   R(33,37)                1.1009         estimate D2E/DX2                !
 ! R41   R(33,45)                1.4651         estimate D2E/DX2                !
 ! R42   R(34,38)                1.5243         estimate D2E/DX2                !
 ! R43   R(34,39)                1.0938         estimate D2E/DX2                !
 ! R44   R(34,40)                1.1011         estimate D2E/DX2                !
 ! R45   R(34,45)                1.4702         estimate D2E/DX2                !
 ! R46   R(35,41)                1.1068         estimate D2E/DX2                !
 ! R47   R(35,42)                1.0975         estimate D2E/DX2                !
 ! R48   R(35,46)                1.4015         estimate D2E/DX2                !
 ! R49   R(38,43)                1.1063         estimate D2E/DX2                !
 ! R50   R(38,44)                1.0978         estimate D2E/DX2                !
 ! R51   R(38,46)                1.4052         estimate D2E/DX2                !
 ! R52   R(48,85)                2.2794         estimate D2E/DX2                !
 ! R53   R(49,50)                1.3738         estimate D2E/DX2                !
 ! R54   R(49,54)                1.4172         estimate D2E/DX2                !
 ! R55   R(49,55)                1.0911         estimate D2E/DX2                !
 ! R56   R(50,51)                1.4247         estimate D2E/DX2                !
 ! R57   R(50,56)                1.0903         estimate D2E/DX2                !
 ! R58   R(51,52)                1.427          estimate D2E/DX2                !
 ! R59   R(51,57)                1.4359         estimate D2E/DX2                !
 ! R60   R(52,53)                1.4228         estimate D2E/DX2                !
 ! R61   R(52,58)                1.4211         estimate D2E/DX2                !
 ! R62   R(53,54)                1.3725         estimate D2E/DX2                !
 ! R63   R(53,59)                1.092          estimate D2E/DX2                !
 ! R64   R(54,60)                1.0912         estimate D2E/DX2                !
 ! R65   R(57,62)                1.3823         estimate D2E/DX2                !
 ! R66   R(57,64)                1.4972         estimate D2E/DX2                !
 ! R67   R(58,61)                1.3701         estimate D2E/DX2                !
 ! R68   R(58,63)                1.0921         estimate D2E/DX2                !
 ! R69   R(61,62)                1.4133         estimate D2E/DX2                !
 ! R70   R(61,87)                1.0906         estimate D2E/DX2                !
 ! R71   R(62,79)                1.7981         estimate D2E/DX2                !
 ! R72   R(64,65)                1.3825         estimate D2E/DX2                !
 ! R73   R(64,66)                1.4364         estimate D2E/DX2                !
 ! R74   R(65,67)                1.4131         estimate D2E/DX2                !
 ! R75   R(65,82)                1.7967         estimate D2E/DX2                !
 ! R76   R(66,68)                1.4272         estimate D2E/DX2                !
 ! R77   R(66,69)                1.4252         estimate D2E/DX2                !
 ! R78   R(67,70)                1.3702         estimate D2E/DX2                !
 ! R79   R(67,86)                1.0901         estimate D2E/DX2                !
 ! R80   R(68,70)                1.4208         estimate D2E/DX2                !
 ! R81   R(68,71)                1.423          estimate D2E/DX2                !
 ! R82   R(69,72)                1.3737         estimate D2E/DX2                !
 ! R83   R(69,73)                1.0901         estimate D2E/DX2                !
 ! R84   R(70,74)                1.0918         estimate D2E/DX2                !
 ! R85   R(71,75)                1.3724         estimate D2E/DX2                !
 ! R86   R(71,76)                1.092          estimate D2E/DX2                !
 ! R87   R(72,75)                1.4171         estimate D2E/DX2                !
 ! R88   R(72,77)                1.0912         estimate D2E/DX2                !
 ! R89   R(75,78)                1.0912         estimate D2E/DX2                !
 ! R90   R(79,80)                1.4613         estimate D2E/DX2                !
 ! R91   R(79,81)                1.4709         estimate D2E/DX2                !
 ! R92   R(79,85)                1.6043         estimate D2E/DX2                !
 ! R93   R(82,83)                1.4611         estimate D2E/DX2                !
 ! R94   R(82,84)                1.4642         estimate D2E/DX2                !
 ! R95   R(82,85)                1.608          estimate D2E/DX2                !
 ! A1    A(2,1,6)              122.5138         estimate D2E/DX2                !
 ! A2    A(2,1,8)              120.2319         estimate D2E/DX2                !
 ! A3    A(6,1,8)              117.242          estimate D2E/DX2                !
 ! A4    A(1,2,3)              115.0837         estimate D2E/DX2                !
 ! A5    A(1,2,47)             106.4844         estimate D2E/DX2                !
 ! A6    A(1,2,48)             112.2289         estimate D2E/DX2                !
 ! A7    A(3,2,47)             110.1652         estimate D2E/DX2                !
 ! A8    A(3,2,48)             109.0202         estimate D2E/DX2                !
 ! A9    A(47,2,48)            103.1586         estimate D2E/DX2                !
 ! A10   A(2,3,4)              119.2627         estimate D2E/DX2                !
 ! A11   A(2,3,29)             118.3233         estimate D2E/DX2                !
 ! A12   A(4,3,29)             122.4078         estimate D2E/DX2                !
 ! A13   A(3,4,5)              119.6521         estimate D2E/DX2                !
 ! A14   A(3,4,7)              119.1988         estimate D2E/DX2                !
 ! A15   A(5,4,7)              121.1141         estimate D2E/DX2                !
 ! A16   A(4,5,6)              121.5154         estimate D2E/DX2                !
 ! A17   A(4,5,45)             122.5109         estimate D2E/DX2                !
 ! A18   A(6,5,45)             115.9661         estimate D2E/DX2                !
 ! A19   A(1,6,5)              120.68           estimate D2E/DX2                !
 ! A20   A(1,8,9)              122.1847         estimate D2E/DX2                !
 ! A21   A(1,8,16)             120.5329         estimate D2E/DX2                !
 ! A22   A(9,8,16)             117.1364         estimate D2E/DX2                !
 ! A23   A(8,9,10)             119.4386         estimate D2E/DX2                !
 ! A24   A(8,9,17)             123.9098         estimate D2E/DX2                !
 ! A25   A(10,9,17)            116.6121         estimate D2E/DX2                !
 ! A26   A(9,10,12)            121.5482         estimate D2E/DX2                !
 ! A27   A(9,10,13)            118.6196         estimate D2E/DX2                !
 ! A28   A(12,10,13)           119.814          estimate D2E/DX2                !
 ! A29   A(12,11,15)           122.8927         estimate D2E/DX2                !
 ! A30   A(12,11,16)           118.6868         estimate D2E/DX2                !
 ! A31   A(15,11,16)           118.4191         estimate D2E/DX2                !
 ! A32   A(10,12,11)           119.8515         estimate D2E/DX2                !
 ! A33   A(10,12,14)           120.1299         estimate D2E/DX2                !
 ! A34   A(11,12,14)           120.0157         estimate D2E/DX2                !
 ! A35   A(8,16,11)            123.3332         estimate D2E/DX2                !
 ! A36   A(8,16,28)            120.2027         estimate D2E/DX2                !
 ! A37   A(11,16,28)           116.4411         estimate D2E/DX2                !
 ! A38   A(9,17,18)            119.545          estimate D2E/DX2                !
 ! A39   A(9,17,19)            121.459          estimate D2E/DX2                !
 ! A40   A(18,17,19)           118.8934         estimate D2E/DX2                !
 ! A41   A(17,18,20)           120.6072         estimate D2E/DX2                !
 ! A42   A(17,18,21)           119.4337         estimate D2E/DX2                !
 ! A43   A(20,18,21)           119.9538         estimate D2E/DX2                !
 ! A44   A(17,19,22)           120.4756         estimate D2E/DX2                !
 ! A45   A(17,19,23)           119.4899         estimate D2E/DX2                !
 ! A46   A(22,19,23)           120.033          estimate D2E/DX2                !
 ! A47   A(18,20,24)           120.1205         estimate D2E/DX2                !
 ! A48   A(18,20,25)           119.6617         estimate D2E/DX2                !
 ! A49   A(24,20,25)           120.2177         estimate D2E/DX2                !
 ! A50   A(19,22,24)           120.3043         estimate D2E/DX2                !
 ! A51   A(19,22,26)           119.645          estimate D2E/DX2                !
 ! A52   A(24,22,26)           120.0485         estimate D2E/DX2                !
 ! A53   A(20,24,22)           119.5958         estimate D2E/DX2                !
 ! A54   A(20,24,27)           120.2549         estimate D2E/DX2                !
 ! A55   A(22,24,27)           120.149          estimate D2E/DX2                !
 ! A56   A(3,29,30)            110.0586         estimate D2E/DX2                !
 ! A57   A(3,29,31)            109.8495         estimate D2E/DX2                !
 ! A58   A(3,29,32)            110.8017         estimate D2E/DX2                !
 ! A59   A(30,29,31)           108.0722         estimate D2E/DX2                !
 ! A60   A(30,29,32)           109.4109         estimate D2E/DX2                !
 ! A61   A(31,29,32)           108.5897         estimate D2E/DX2                !
 ! A62   A(35,33,36)           110.195          estimate D2E/DX2                !
 ! A63   A(35,33,37)           109.6533         estimate D2E/DX2                !
 ! A64   A(35,33,45)           109.6495         estimate D2E/DX2                !
 ! A65   A(36,33,37)           108.6198         estimate D2E/DX2                !
 ! A66   A(36,33,45)           111.6149         estimate D2E/DX2                !
 ! A67   A(37,33,45)           107.038          estimate D2E/DX2                !
 ! A68   A(38,34,39)           111.141          estimate D2E/DX2                !
 ! A69   A(38,34,40)           109.814          estimate D2E/DX2                !
 ! A70   A(38,34,45)           109.0703         estimate D2E/DX2                !
 ! A71   A(39,34,40)           109.6853         estimate D2E/DX2                !
 ! A72   A(39,34,45)           109.5965         estimate D2E/DX2                !
 ! A73   A(40,34,45)           107.4558         estimate D2E/DX2                !
 ! A74   A(33,35,41)           109.2122         estimate D2E/DX2                !
 ! A75   A(33,35,42)           109.1117         estimate D2E/DX2                !
 ! A76   A(33,35,46)           111.2301         estimate D2E/DX2                !
 ! A77   A(41,35,42)           108.5696         estimate D2E/DX2                !
 ! A78   A(41,35,46)           110.6371         estimate D2E/DX2                !
 ! A79   A(42,35,46)           108.022          estimate D2E/DX2                !
 ! A80   A(34,38,43)           109.3048         estimate D2E/DX2                !
 ! A81   A(34,38,44)           109.2095         estimate D2E/DX2                !
 ! A82   A(34,38,46)           111.469          estimate D2E/DX2                !
 ! A83   A(43,38,44)           108.4921         estimate D2E/DX2                !
 ! A84   A(43,38,46)           110.3797         estimate D2E/DX2                !
 ! A85   A(44,38,46)           107.9215         estimate D2E/DX2                !
 ! A86   A(5,45,33)            125.2907         estimate D2E/DX2                !
 ! A87   A(5,45,34)            122.8277         estimate D2E/DX2                !
 ! A88   A(33,45,34)           111.8816         estimate D2E/DX2                !
 ! A89   A(35,46,38)           111.0599         estimate D2E/DX2                !
 ! A90   A(2,48,85)            127.0022         estimate D2E/DX2                !
 ! A91   A(50,49,54)           120.5883         estimate D2E/DX2                !
 ! A92   A(50,49,55)           119.7106         estimate D2E/DX2                !
 ! A93   A(54,49,55)           119.7001         estimate D2E/DX2                !
 ! A94   A(49,50,51)           120.8965         estimate D2E/DX2                !
 ! A95   A(49,50,56)           119.726          estimate D2E/DX2                !
 ! A96   A(51,50,56)           119.3714         estimate D2E/DX2                !
 ! A97   A(50,51,52)           118.3494         estimate D2E/DX2                !
 ! A98   A(50,51,57)           122.2437         estimate D2E/DX2                !
 ! A99   A(52,51,57)           119.3959         estimate D2E/DX2                !
 ! A100  A(51,52,53)           119.3721         estimate D2E/DX2                !
 ! A101  A(51,52,58)           119.6438         estimate D2E/DX2                !
 ! A102  A(53,52,58)           120.9807         estimate D2E/DX2                !
 ! A103  A(52,53,54)           120.8079         estimate D2E/DX2                !
 ! A104  A(52,53,59)           118.4065         estimate D2E/DX2                !
 ! A105  A(54,53,59)           120.7833         estimate D2E/DX2                !
 ! A106  A(49,54,53)           119.9577         estimate D2E/DX2                !
 ! A107  A(49,54,60)           119.7728         estimate D2E/DX2                !
 ! A108  A(53,54,60)           120.2661         estimate D2E/DX2                !
 ! A109  A(51,57,62)           118.148          estimate D2E/DX2                !
 ! A110  A(51,57,64)           119.9468         estimate D2E/DX2                !
 ! A111  A(62,57,64)           121.9048         estimate D2E/DX2                !
 ! A112  A(52,58,61)           120.4128         estimate D2E/DX2                !
 ! A113  A(52,58,63)           119.0124         estimate D2E/DX2                !
 ! A114  A(61,58,63)           120.564          estimate D2E/DX2                !
 ! A115  A(58,61,62)           119.712          estimate D2E/DX2                !
 ! A116  A(58,61,87)           121.7215         estimate D2E/DX2                !
 ! A117  A(62,61,87)           118.5646         estimate D2E/DX2                !
 ! A118  A(57,62,61)           122.4782         estimate D2E/DX2                !
 ! A119  A(57,62,79)           120.2514         estimate D2E/DX2                !
 ! A120  A(61,62,79)           117.2342         estimate D2E/DX2                !
 ! A121  A(57,64,65)           122.0985         estimate D2E/DX2                !
 ! A122  A(57,64,66)           119.7143         estimate D2E/DX2                !
 ! A123  A(65,64,66)           118.1726         estimate D2E/DX2                !
 ! A124  A(64,65,67)           122.6046         estimate D2E/DX2                !
 ! A125  A(64,65,82)           119.9839         estimate D2E/DX2                !
 ! A126  A(67,65,82)           117.2648         estimate D2E/DX2                !
 ! A127  A(64,66,68)           119.2989         estimate D2E/DX2                !
 ! A128  A(64,66,69)           122.4088         estimate D2E/DX2                !
 ! A129  A(68,66,69)           118.278          estimate D2E/DX2                !
 ! A130  A(65,67,70)           119.6058         estimate D2E/DX2                !
 ! A131  A(65,67,86)           118.4816         estimate D2E/DX2                !
 ! A132  A(70,67,86)           121.9122         estimate D2E/DX2                !
 ! A133  A(66,68,70)           119.7296         estimate D2E/DX2                !
 ! A134  A(66,68,71)           119.3994         estimate D2E/DX2                !
 ! A135  A(70,68,71)           120.8625         estimate D2E/DX2                !
 ! A136  A(66,69,72)           120.923          estimate D2E/DX2                !
 ! A137  A(66,69,73)           119.4393         estimate D2E/DX2                !
 ! A138  A(72,69,73)           119.6324         estimate D2E/DX2                !
 ! A139  A(67,70,68)           120.4568         estimate D2E/DX2                !
 ! A140  A(67,70,74)           120.6148         estimate D2E/DX2                !
 ! A141  A(68,70,74)           118.9162         estimate D2E/DX2                !
 ! A142  A(68,71,75)           120.8306         estimate D2E/DX2                !
 ! A143  A(68,71,76)           118.3749         estimate D2E/DX2                !
 ! A144  A(75,71,76)           120.7921         estimate D2E/DX2                !
 ! A145  A(69,72,75)           120.6127         estimate D2E/DX2                !
 ! A146  A(69,72,77)           119.6924         estimate D2E/DX2                !
 ! A147  A(75,72,77)           119.6939         estimate D2E/DX2                !
 ! A148  A(71,75,72)           119.9228         estimate D2E/DX2                !
 ! A149  A(71,75,78)           120.2828         estimate D2E/DX2                !
 ! A150  A(72,75,78)           119.7906         estimate D2E/DX2                !
 ! A151  A(62,79,80)           107.0697         estimate D2E/DX2                !
 ! A152  A(62,79,81)           107.002          estimate D2E/DX2                !
 ! A153  A(62,79,85)           106.9728         estimate D2E/DX2                !
 ! A154  A(80,79,81)           116.0036         estimate D2E/DX2                !
 ! A155  A(80,79,85)           112.3713         estimate D2E/DX2                !
 ! A156  A(81,79,85)           106.9571         estimate D2E/DX2                !
 ! A157  A(65,82,83)           107.3369         estimate D2E/DX2                !
 ! A158  A(65,82,84)           107.7252         estimate D2E/DX2                !
 ! A159  A(65,82,85)           104.7786         estimate D2E/DX2                !
 ! A160  A(83,82,84)           116.5644         estimate D2E/DX2                !
 ! A161  A(83,82,85)           112.7423         estimate D2E/DX2                !
 ! A162  A(84,82,85)           106.9653         estimate D2E/DX2                !
 ! A163  A(48,85,79)           105.4325         estimate D2E/DX2                !
 ! A164  A(48,85,82)           112.8844         estimate D2E/DX2                !
 ! A165  A(79,85,82)           124.332          estimate D2E/DX2                !
 ! D1    D(6,1,2,3)             11.2554         estimate D2E/DX2                !
 ! D2    D(6,1,2,47)          -111.1193         estimate D2E/DX2                !
 ! D3    D(6,1,2,48)           136.7078         estimate D2E/DX2                !
 ! D4    D(8,1,2,3)           -170.0571         estimate D2E/DX2                !
 ! D5    D(8,1,2,47)            67.5682         estimate D2E/DX2                !
 ! D6    D(8,1,2,48)           -44.6047         estimate D2E/DX2                !
 ! D7    D(2,1,6,5)             -6.4705         estimate D2E/DX2                !
 ! D8    D(8,1,6,5)            174.8049         estimate D2E/DX2                !
 ! D9    D(2,1,8,9)           -145.7189         estimate D2E/DX2                !
 ! D10   D(2,1,8,16)            38.8018         estimate D2E/DX2                !
 ! D11   D(6,1,8,9)             33.0362         estimate D2E/DX2                !
 ! D12   D(6,1,8,16)          -142.4431         estimate D2E/DX2                !
 ! D13   D(1,2,3,4)             -5.165          estimate D2E/DX2                !
 ! D14   D(1,2,3,29)           173.953          estimate D2E/DX2                !
 ! D15   D(47,2,3,4)           115.2101         estimate D2E/DX2                !
 ! D16   D(47,2,3,29)          -65.6719         estimate D2E/DX2                !
 ! D17   D(48,2,3,4)          -132.2632         estimate D2E/DX2                !
 ! D18   D(48,2,3,29)           46.8548         estimate D2E/DX2                !
 ! D19   D(1,2,48,85)          -93.2987         estimate D2E/DX2                !
 ! D20   D(3,2,48,85)           35.4061         estimate D2E/DX2                !
 ! D21   D(47,2,48,85)         152.4748         estimate D2E/DX2                !
 ! D22   D(2,3,4,5)             -4.6656         estimate D2E/DX2                !
 ! D23   D(2,3,4,7)            177.463          estimate D2E/DX2                !
 ! D24   D(29,3,4,5)           176.254          estimate D2E/DX2                !
 ! D25   D(29,3,4,7)            -1.6174         estimate D2E/DX2                !
 ! D26   D(2,3,29,30)          -47.2528         estimate D2E/DX2                !
 ! D27   D(2,3,29,31)           71.6233         estimate D2E/DX2                !
 ! D28   D(2,3,29,32)         -168.3964         estimate D2E/DX2                !
 ! D29   D(4,3,29,30)          131.8358         estimate D2E/DX2                !
 ! D30   D(4,3,29,31)         -109.2881         estimate D2E/DX2                !
 ! D31   D(4,3,29,32)           10.6922         estimate D2E/DX2                !
 ! D32   D(3,4,5,6)             10.26           estimate D2E/DX2                !
 ! D33   D(3,4,5,45)          -170.786          estimate D2E/DX2                !
 ! D34   D(7,4,5,6)           -171.9103         estimate D2E/DX2                !
 ! D35   D(7,4,5,45)             7.0437         estimate D2E/DX2                !
 ! D36   D(4,5,6,1)             -4.4618         estimate D2E/DX2                !
 ! D37   D(45,5,6,1)           176.5193         estimate D2E/DX2                !
 ! D38   D(4,5,45,33)           -3.7963         estimate D2E/DX2                !
 ! D39   D(4,5,45,34)          176.1275         estimate D2E/DX2                !
 ! D40   D(6,5,45,33)          175.2119         estimate D2E/DX2                !
 ! D41   D(6,5,45,34)           -4.8643         estimate D2E/DX2                !
 ! D42   D(1,8,9,10)          -174.8245         estimate D2E/DX2                !
 ! D43   D(1,8,9,17)             7.5418         estimate D2E/DX2                !
 ! D44   D(16,8,9,10)            0.8003         estimate D2E/DX2                !
 ! D45   D(16,8,9,17)         -176.8334         estimate D2E/DX2                !
 ! D46   D(1,8,16,11)          174.9626         estimate D2E/DX2                !
 ! D47   D(1,8,16,28)           -3.2312         estimate D2E/DX2                !
 ! D48   D(9,8,16,11)           -0.7386         estimate D2E/DX2                !
 ! D49   D(9,8,16,28)         -178.9323         estimate D2E/DX2                !
 ! D50   D(8,9,10,12)           -0.3338         estimate D2E/DX2                !
 ! D51   D(8,9,10,13)         -178.778          estimate D2E/DX2                !
 ! D52   D(17,9,10,12)         177.4697         estimate D2E/DX2                !
 ! D53   D(17,9,10,13)          -0.9744         estimate D2E/DX2                !
 ! D54   D(8,9,17,18)         -129.5253         estimate D2E/DX2                !
 ! D55   D(8,9,17,19)           54.197          estimate D2E/DX2                !
 ! D56   D(10,9,17,18)          52.7796         estimate D2E/DX2                !
 ! D57   D(10,9,17,19)        -123.4981         estimate D2E/DX2                !
 ! D58   D(9,10,12,11)          -0.2548         estimate D2E/DX2                !
 ! D59   D(9,10,12,14)        -179.6286         estimate D2E/DX2                !
 ! D60   D(13,10,12,11)        178.1711         estimate D2E/DX2                !
 ! D61   D(13,10,12,14)         -1.2027         estimate D2E/DX2                !
 ! D62   D(15,11,12,10)        179.8967         estimate D2E/DX2                !
 ! D63   D(15,11,12,14)         -0.7287         estimate D2E/DX2                !
 ! D64   D(16,11,12,10)          0.3387         estimate D2E/DX2                !
 ! D65   D(16,11,12,14)        179.7132         estimate D2E/DX2                !
 ! D66   D(12,11,16,8)           0.1709         estimate D2E/DX2                !
 ! D67   D(12,11,16,28)        178.4275         estimate D2E/DX2                !
 ! D68   D(15,11,16,8)        -179.4071         estimate D2E/DX2                !
 ! D69   D(15,11,16,28)         -1.1505         estimate D2E/DX2                !
 ! D70   D(9,17,18,20)        -177.0611         estimate D2E/DX2                !
 ! D71   D(9,17,18,21)           3.7754         estimate D2E/DX2                !
 ! D72   D(19,17,18,20)         -0.6876         estimate D2E/DX2                !
 ! D73   D(19,17,18,21)       -179.8511         estimate D2E/DX2                !
 ! D74   D(9,17,19,22)         176.8278         estimate D2E/DX2                !
 ! D75   D(9,17,19,23)          -2.7372         estimate D2E/DX2                !
 ! D76   D(18,17,19,22)          0.5265         estimate D2E/DX2                !
 ! D77   D(18,17,19,23)       -179.0385         estimate D2E/DX2                !
 ! D78   D(17,18,20,24)          0.4537         estimate D2E/DX2                !
 ! D79   D(17,18,20,25)       -179.6168         estimate D2E/DX2                !
 ! D80   D(21,18,20,24)        179.6129         estimate D2E/DX2                !
 ! D81   D(21,18,20,25)         -0.4576         estimate D2E/DX2                !
 ! D82   D(17,19,22,24)         -0.1315         estimate D2E/DX2                !
 ! D83   D(17,19,22,26)       -179.5919         estimate D2E/DX2                !
 ! D84   D(23,19,22,24)        179.4312         estimate D2E/DX2                !
 ! D85   D(23,19,22,26)         -0.0292         estimate D2E/DX2                !
 ! D86   D(18,20,24,22)         -0.0482         estimate D2E/DX2                !
 ! D87   D(18,20,24,27)        179.7701         estimate D2E/DX2                !
 ! D88   D(25,20,24,22)       -179.9773         estimate D2E/DX2                !
 ! D89   D(25,20,24,27)         -0.159          estimate D2E/DX2                !
 ! D90   D(19,22,24,20)         -0.1116         estimate D2E/DX2                !
 ! D91   D(19,22,24,27)       -179.9301         estimate D2E/DX2                !
 ! D92   D(26,22,24,20)        179.3466         estimate D2E/DX2                !
 ! D93   D(26,22,24,27)         -0.4719         estimate D2E/DX2                !
 ! D94   D(36,33,35,41)         56.9747         estimate D2E/DX2                !
 ! D95   D(36,33,35,42)        -61.558          estimate D2E/DX2                !
 ! D96   D(36,33,35,46)        179.3718         estimate D2E/DX2                !
 ! D97   D(37,33,35,41)        176.487          estimate D2E/DX2                !
 ! D98   D(37,33,35,42)         57.9543         estimate D2E/DX2                !
 ! D99   D(37,33,35,46)        -61.1159         estimate D2E/DX2                !
 ! D100  D(45,33,35,41)        -66.2622         estimate D2E/DX2                !
 ! D101  D(45,33,35,42)        175.2051         estimate D2E/DX2                !
 ! D102  D(45,33,35,46)         56.1349         estimate D2E/DX2                !
 ! D103  D(35,33,45,5)         126.293          estimate D2E/DX2                !
 ! D104  D(35,33,45,34)        -53.638          estimate D2E/DX2                !
 ! D105  D(36,33,45,5)           3.8972         estimate D2E/DX2                !
 ! D106  D(36,33,45,34)       -176.0338         estimate D2E/DX2                !
 ! D107  D(37,33,45,5)        -114.8294         estimate D2E/DX2                !
 ! D108  D(37,33,45,34)         65.2396         estimate D2E/DX2                !
 ! D109  D(39,34,38,43)        -55.0876         estimate D2E/DX2                !
 ! D110  D(39,34,38,44)         63.463          estimate D2E/DX2                !
 ! D111  D(39,34,38,46)       -177.3815         estimate D2E/DX2                !
 ! D112  D(40,34,38,43)       -176.6356         estimate D2E/DX2                !
 ! D113  D(40,34,38,44)        -58.085          estimate D2E/DX2                !
 ! D114  D(40,34,38,46)         61.0705         estimate D2E/DX2                !
 ! D115  D(45,34,38,43)         65.8536         estimate D2E/DX2                !
 ! D116  D(45,34,38,44)       -175.5958         estimate D2E/DX2                !
 ! D117  D(45,34,38,46)        -56.4403         estimate D2E/DX2                !
 ! D118  D(38,34,45,5)        -126.3057         estimate D2E/DX2                !
 ! D119  D(38,34,45,33)         53.6273         estimate D2E/DX2                !
 ! D120  D(39,34,45,5)          -4.4255         estimate D2E/DX2                !
 ! D121  D(39,34,45,33)        175.5075         estimate D2E/DX2                !
 ! D122  D(40,34,45,5)         114.7034         estimate D2E/DX2                !
 ! D123  D(40,34,45,33)        -65.3636         estimate D2E/DX2                !
 ! D124  D(33,35,46,38)        -60.0321         estimate D2E/DX2                !
 ! D125  D(41,35,46,38)         61.5378         estimate D2E/DX2                !
 ! D126  D(42,35,46,38)       -179.7521         estimate D2E/DX2                !
 ! D127  D(34,38,46,35)         60.4948         estimate D2E/DX2                !
 ! D128  D(43,38,46,35)        -61.1779         estimate D2E/DX2                !
 ! D129  D(44,38,46,35)       -179.5862         estimate D2E/DX2                !
 ! D130  D(2,48,85,79)          67.0484         estimate D2E/DX2                !
 ! D131  D(2,48,85,82)        -154.2232         estimate D2E/DX2                !
 ! D132  D(54,49,50,51)         -0.1885         estimate D2E/DX2                !
 ! D133  D(54,49,50,56)       -179.2837         estimate D2E/DX2                !
 ! D134  D(55,49,50,51)        179.4685         estimate D2E/DX2                !
 ! D135  D(55,49,50,56)          0.3734         estimate D2E/DX2                !
 ! D136  D(50,49,54,53)          1.0271         estimate D2E/DX2                !
 ! D137  D(50,49,54,60)       -179.6387         estimate D2E/DX2                !
 ! D138  D(55,49,54,53)       -178.63           estimate D2E/DX2                !
 ! D139  D(55,49,54,60)          0.7042         estimate D2E/DX2                !
 ! D140  D(49,50,51,52)         -1.2736         estimate D2E/DX2                !
 ! D141  D(49,50,51,57)        179.9371         estimate D2E/DX2                !
 ! D142  D(56,50,51,52)        177.8248         estimate D2E/DX2                !
 ! D143  D(56,50,51,57)         -0.9646         estimate D2E/DX2                !
 ! D144  D(50,51,52,53)          1.908          estimate D2E/DX2                !
 ! D145  D(50,51,52,58)       -177.4265         estimate D2E/DX2                !
 ! D146  D(57,51,52,53)       -179.2672         estimate D2E/DX2                !
 ! D147  D(57,51,52,58)          1.3983         estimate D2E/DX2                !
 ! D148  D(50,51,57,62)        174.0479         estimate D2E/DX2                !
 ! D149  D(50,51,57,64)         -5.7231         estimate D2E/DX2                !
 ! D150  D(52,51,57,62)         -4.7292         estimate D2E/DX2                !
 ! D151  D(52,51,57,64)        175.4998         estimate D2E/DX2                !
 ! D152  D(51,52,53,54)         -1.1202         estimate D2E/DX2                !
 ! D153  D(51,52,53,59)        179.4277         estimate D2E/DX2                !
 ! D154  D(58,52,53,54)        178.2052         estimate D2E/DX2                !
 ! D155  D(58,52,53,59)         -1.2469         estimate D2E/DX2                !
 ! D156  D(51,52,58,61)          2.1053         estimate D2E/DX2                !
 ! D157  D(51,52,58,63)       -179.0856         estimate D2E/DX2                !
 ! D158  D(53,52,58,61)       -177.2182         estimate D2E/DX2                !
 ! D159  D(53,52,58,63)          1.5909         estimate D2E/DX2                !
 ! D160  D(52,53,54,49)         -0.3565         estimate D2E/DX2                !
 ! D161  D(52,53,54,60)       -179.6873         estimate D2E/DX2                !
 ! D162  D(59,53,54,49)        179.0825         estimate D2E/DX2                !
 ! D163  D(59,53,54,60)         -0.2483         estimate D2E/DX2                !
 ! D164  D(51,57,62,61)          4.7973         estimate D2E/DX2                !
 ! D165  D(51,57,62,79)       -172.9533         estimate D2E/DX2                !
 ! D166  D(64,57,62,61)       -175.4364         estimate D2E/DX2                !
 ! D167  D(64,57,62,79)          6.813          estimate D2E/DX2                !
 ! D168  D(51,57,64,65)        117.9603         estimate D2E/DX2                !
 ! D169  D(51,57,64,66)        -63.4535         estimate D2E/DX2                !
 ! D170  D(62,57,64,65)        -61.8019         estimate D2E/DX2                !
 ! D171  D(62,57,64,66)        116.7843         estimate D2E/DX2                !
 ! D172  D(52,58,61,62)         -2.191          estimate D2E/DX2                !
 ! D173  D(52,58,61,87)        178.316          estimate D2E/DX2                !
 ! D174  D(63,58,61,62)        179.0185         estimate D2E/DX2                !
 ! D175  D(63,58,61,87)         -0.4745         estimate D2E/DX2                !
 ! D176  D(58,61,62,57)         -1.3589         estimate D2E/DX2                !
 ! D177  D(58,61,62,79)        176.4557         estimate D2E/DX2                !
 ! D178  D(87,61,62,57)        178.1501         estimate D2E/DX2                !
 ! D179  D(87,61,62,79)         -4.0353         estimate D2E/DX2                !
 ! D180  D(57,62,79,80)        -57.6811         estimate D2E/DX2                !
 ! D181  D(57,62,79,81)        177.3256         estimate D2E/DX2                !
 ! D182  D(57,62,79,85)         62.9826         estimate D2E/DX2                !
 ! D183  D(61,62,79,80)        124.4531         estimate D2E/DX2                !
 ! D184  D(61,62,79,81)         -0.5403         estimate D2E/DX2                !
 ! D185  D(61,62,79,85)       -114.8833         estimate D2E/DX2                !
 ! D186  D(57,64,65,67)       -178.2539         estimate D2E/DX2                !
 ! D187  D(57,64,65,82)          6.2713         estimate D2E/DX2                !
 ! D188  D(66,64,65,67)          3.1391         estimate D2E/DX2                !
 ! D189  D(66,64,65,82)       -172.3357         estimate D2E/DX2                !
 ! D190  D(57,64,66,68)        177.403          estimate D2E/DX2                !
 ! D191  D(57,64,66,69)         -3.9975         estimate D2E/DX2                !
 ! D192  D(65,64,66,68)         -3.9556         estimate D2E/DX2                !
 ! D193  D(65,64,66,69)        174.6439         estimate D2E/DX2                !
 ! D194  D(64,65,67,70)         -0.0096         estimate D2E/DX2                !
 ! D195  D(64,65,67,86)        179.7769         estimate D2E/DX2                !
 ! D196  D(82,65,67,70)        175.5812         estimate D2E/DX2                !
 ! D197  D(82,65,67,86)         -4.6323         estimate D2E/DX2                !
 ! D198  D(64,65,82,83)        -53.6275         estimate D2E/DX2                !
 ! D199  D(64,65,82,84)       -179.8991         estimate D2E/DX2                !
 ! D200  D(64,65,82,85)         66.4517         estimate D2E/DX2                !
 ! D201  D(67,65,82,83)        130.6606         estimate D2E/DX2                !
 ! D202  D(67,65,82,84)          4.389          estimate D2E/DX2                !
 ! D203  D(67,65,82,85)       -109.2602         estimate D2E/DX2                !
 ! D204  D(64,66,68,70)          1.7933         estimate D2E/DX2                !
 ! D205  D(64,66,68,71)       -179.2572         estimate D2E/DX2                !
 ! D206  D(69,66,68,70)       -176.8641         estimate D2E/DX2                !
 ! D207  D(69,66,68,71)          2.0853         estimate D2E/DX2                !
 ! D208  D(64,66,69,72)        179.8762         estimate D2E/DX2                !
 ! D209  D(64,66,69,73)         -0.9624         estimate D2E/DX2                !
 ! D210  D(68,66,69,72)         -1.5106         estimate D2E/DX2                !
 ! D211  D(68,66,69,73)        177.6508         estimate D2E/DX2                !
 ! D212  D(65,67,70,68)         -2.2935         estimate D2E/DX2                !
 ! D213  D(65,67,70,74)        178.9883         estimate D2E/DX2                !
 ! D214  D(86,67,70,68)        177.9275         estimate D2E/DX2                !
 ! D215  D(86,67,70,74)         -0.7906         estimate D2E/DX2                !
 ! D216  D(66,68,70,67)          1.3712         estimate D2E/DX2                !
 ! D217  D(66,68,70,74)       -179.8891         estimate D2E/DX2                !
 ! D218  D(71,68,70,67)       -177.5626         estimate D2E/DX2                !
 ! D219  D(71,68,70,74)          1.1771         estimate D2E/DX2                !
 ! D220  D(66,68,71,75)         -1.1321         estimate D2E/DX2                !
 ! D221  D(66,68,71,76)        179.4219         estimate D2E/DX2                !
 ! D222  D(70,68,71,75)        177.8052         estimate D2E/DX2                !
 ! D223  D(70,68,71,76)         -1.6408         estimate D2E/DX2                !
 ! D224  D(66,69,72,75)         -0.06           estimate D2E/DX2                !
 ! D225  D(66,69,72,77)        179.5778         estimate D2E/DX2                !
 ! D226  D(73,69,72,75)       -179.2198         estimate D2E/DX2                !
 ! D227  D(73,69,72,77)          0.418          estimate D2E/DX2                !
 ! D228  D(68,71,75,72)         -0.4592         estimate D2E/DX2                !
 ! D229  D(68,71,75,78)       -179.7425         estimate D2E/DX2                !
 ! D230  D(76,71,75,72)        178.9733         estimate D2E/DX2                !
 ! D231  D(76,71,75,78)         -0.3099         estimate D2E/DX2                !
 ! D232  D(69,72,75,71)          1.0722         estimate D2E/DX2                !
 ! D233  D(69,72,75,78)       -179.641          estimate D2E/DX2                !
 ! D234  D(77,72,75,71)       -178.5655         estimate D2E/DX2                !
 ! D235  D(77,72,75,78)          0.7213         estimate D2E/DX2                !
 ! D236  D(62,79,85,48)         99.4126         estimate D2E/DX2                !
 ! D237  D(62,79,85,82)        -33.2024         estimate D2E/DX2                !
 ! D238  D(80,79,85,48)       -143.3614         estimate D2E/DX2                !
 ! D239  D(80,79,85,82)         84.0236         estimate D2E/DX2                !
 ! D240  D(81,79,85,48)        -14.9607         estimate D2E/DX2                !
 ! D241  D(81,79,85,82)       -147.5756         estimate D2E/DX2                !
 ! D242  D(65,82,85,48)       -170.5575         estimate D2E/DX2                !
 ! D243  D(65,82,85,79)        -40.9106         estimate D2E/DX2                !
 ! D244  D(83,82,85,48)        -54.1502         estimate D2E/DX2                !
 ! D245  D(83,82,85,79)         75.4967         estimate D2E/DX2                !
 ! D246  D(84,82,85,48)         75.2581         estimate D2E/DX2                !
 ! D247  D(84,82,85,79)       -155.095          estimate D2E/DX2                !
 --------------------------------------------------------------------------------
 Trust Radius=3.00D-01 FncErr=1.00D-07 GrdErr=1.00D-06 EigMax=2.50D+02 EigMin=1.00D-04
 Number of steps in this run=    517 maximum allowed number of steps=    522.
 GradGradGradGradGradGradGradGradGradGradGradGradGradGradGradGradGradGrad

 Leave Link  103 at Tue Jun 11 17:54:37 2024, MaxMem=  8321499136 cpu:               0.4 elap:               0.0
 (Enter /opt/packages/gaussian/g16RevC.01/g16/l202.exe)
 Symmetry turned off by external request.
 Stoichiometry    C42H33FIN3O5S2
 Framework group  C1[X(C42H33FIN3O5S2)]
 Deg. of freedom   255
 Full point group                 C1      NOp   1
                          Input orientation:                          
 ---------------------------------------------------------------------
 Center     Atomic      Atomic             Coordinates (Angstroms)
 Number     Number       Type             X           Y           Z
 ---------------------------------------------------------------------
      1          6           0        1.676306   -1.799195   -0.299336
      2          6           0        0.316540   -2.157469   -0.810734
      3          6           0       -0.543583   -2.891513    0.150017
      4          6           0       -0.029118   -3.271844    1.339947
      5          6           0        1.374036   -3.049015    1.617659
      6          7           0        2.152476   -2.279807    0.796096
      7          1           0       -0.671208   -3.772446    2.059318
      8          6           0        2.550059   -0.876719   -1.075459
      9          6           0        3.962191   -1.019696   -1.106286
     10          6           0        4.736514   -0.058006   -1.764332
     11          6           0        2.774131    1.187809   -2.389791
     12          6           0        4.154213    1.037365   -2.398645
     13          1           0        5.818477   -0.191606   -1.797172
     14          1           0        4.779749    1.770215   -2.910110
     15          1           0        2.266732    2.025840   -2.868568
     16          6           0        2.004384    0.235900   -1.735898
     17          6           0        4.694823   -2.177211   -0.514696
     18          6           0        5.771248   -1.944118    0.349632
     19          6           0        4.380134   -3.498004   -0.863819
     20          6           0        6.510804   -3.009377    0.867506
     21          1           0        6.022605   -0.918889    0.629352
     22          6           0        5.119835   -4.559541   -0.349874
     23          1           0        3.551890   -3.690199   -1.550196
     24          6           0        6.187977   -4.319478    0.519235
     25          1           0        7.343113   -2.810249    1.545082
     26          1           0        4.867186   -5.582344   -0.636071
     27          1           0        6.766978   -5.153647    0.919817
     28          9           0        0.688900    0.441063   -1.727470
     29          6           0       -1.959772   -3.164443   -0.232946
     30          1           0       -2.426345   -2.250324   -0.629434
     31          1           0       -1.992634   -3.934070   -1.020404
     32          1           0       -2.534677   -3.522361    0.630083
     33          6           0        1.318267   -4.317462    3.741740
     34          6           0        3.417221   -3.400030    2.925550
     35          6           0        2.036700   -5.648452    3.934689
     36          1           0        0.263008   -4.487457    3.520641
     37          1           0        1.392469   -3.719669    4.663192
     38          6           0        4.031824   -4.776418    3.151788
     39          1           0        3.883335   -2.894878    2.074720
     40          1           0        3.534537   -2.785401    3.831544
     41          1           0        1.903740   -6.268936    3.027821
     42          1           0        1.591878   -6.176538    4.787807
     43          1           0        3.963619   -5.365413    2.217821
     44          1           0        5.091613   -4.660174    3.413523
     45          7           0        1.975775   -3.552174    2.679443
     46          8           0        3.398060   -5.455664    4.206046
     47         53           0        0.628653   -3.361293   -2.619901
     48          1           0       -0.229517   -1.283844   -1.183587
     49          6           0       -1.893373    6.666076   -1.388989
     50          6           0       -2.214267    5.477811   -0.778802
     51          6           0       -1.198955    4.555188   -0.394484
     52          6           0        0.159394    4.883076   -0.683895
     53          6           0        0.459903    6.127740   -1.304268
     54          6           0       -0.540957    7.002389   -1.646458
     55          1           0       -2.687086    7.354615   -1.683078
     56          1           0       -3.260043    5.228028   -0.598034
     57          6           0       -1.501429    3.306105    0.245960
     58          6           0        1.189487    3.958429   -0.362406
     59          1           0        1.505438    6.366637   -1.509970
     60          1           0       -0.300792    7.952469   -2.126555
     61          6           0        0.882121    2.739608    0.182820
     62          6           0       -0.464409    2.419895    0.469352
     63          1           0        2.226815    4.226219   -0.574583
     64          6           0       -2.909751    2.993302    0.646477
     65          6           0       -3.603249    1.921064    0.116706
     66          6           0       -3.566358    3.804921    1.633025
     67          6           0       -4.944313    1.637098    0.459913
     68          6           0       -4.927028    3.533507    1.967605
     69          6           0       -2.900266    4.861752    2.319016
     70          6           0       -5.600419    2.444625    1.351440
     71          6           0       -5.584442    4.346226    2.933054
     72          6           0       -3.558799    5.620842    3.255632
     73          1           0       -1.849809    5.060374    2.106122
     74          1           0       -6.641740    2.250131    1.615813
     75          6           0       -4.919800    5.369881    3.560551
     76          1           0       -6.628349    4.129726    3.169345
     77          1           0       -3.027347    6.420630    3.773855
     78          1           0       -5.431482    5.984942    4.302633
     79         16           0       -0.803230    0.767435    1.091996
     80          8           0       -1.514332    0.923893    2.358976
     81          8           0        0.484903    0.060351    1.158477
     82         16           0       -2.765032    0.754309   -0.962351
     83          8           0       -2.141553    1.524646   -2.035934
     84          8           0       -3.740779   -0.260057   -1.365755
     85          7           0       -1.689710    0.021501   -0.017669
     86          1           0       -5.427736    0.775823   -0.001331
     87          1           0        1.653184    2.003350    0.412662
 ---------------------------------------------------------------------
 Rotational constants (GHZ):           0.0739543           0.0294904           0.0281025
 Leave Link  202 at Tue Jun 11 17:54:38 2024, MaxMem=  8321499136 cpu:               0.1 elap:               0.0
 (Enter /opt/packages/gaussian/g16RevC.01/g16/l301.exe)
 General basis read from cards:  (5D, 7F)
 Centers:       1      2      3      4      5      8      9     10     11     12
 Centers:      16     17     18     19     20     22     24     29     33     34
 Centers:      35     38     49     50     51     52     53     54     57     58
 Centers:      61     62     64     65     66     67     68     69     70     71
 Centers:      72     75      7     13     14     15     21     23     25     26
 Centers:      27     30     31     32     36     37     39     40     41     42
 Centers:      43     44     48     55     56     59     60     63     73     74
 Centers:      76     77     78     86     87      6     45     85     28     46
 Centers:      80     81     83     84
 def2svp
 ****
 Centers:      47     79     82
 def2tzvp
 ****
 ======================================================================================================
                                       Pseudopotential Parameters
 ======================================================================================================
  Center     Atomic      Valence      Angular      Power
  Number     Number     Electrons     Momentum     of R      Exponent        Coefficient   SO-Coeffient
 ======================================================================================================
    1          6
                                   No pseudopotential on this center.
    2          6
                                   No pseudopotential on this center.
    3          6
                                   No pseudopotential on this center.
    4          6
                                   No pseudopotential on this center.
    5          6
                                   No pseudopotential on this center.
    6          7
                                   No pseudopotential on this center.
    7          1
                                   No pseudopotential on this center.
    8          6
                                   No pseudopotential on this center.
    9          6
                                   No pseudopotential on this center.
   10          6
                                   No pseudopotential on this center.
   11          6
                                   No pseudopotential on this center.
   12          6
                                   No pseudopotential on this center.
   13          1
                                   No pseudopotential on this center.
   14          1
                                   No pseudopotential on this center.
   15          1
                                   No pseudopotential on this center.
   16          6
                                   No pseudopotential on this center.
   17          6
                                   No pseudopotential on this center.
   18          6
                                   No pseudopotential on this center.
   19          6
                                   No pseudopotential on this center.
   20          6
                                   No pseudopotential on this center.
   21          1
                                   No pseudopotential on this center.
   22          6
                                   No pseudopotential on this center.
   23          1
                                   No pseudopotential on this center.
   24          6
                                   No pseudopotential on this center.
   25          1
                                   No pseudopotential on this center.
   26          1
                                   No pseudopotential on this center.
   27          1
                                   No pseudopotential on this center.
   28          9
                                   No pseudopotential on this center.
   29          6
                                   No pseudopotential on this center.
   30          1
                                   No pseudopotential on this center.
   31          1
                                   No pseudopotential on this center.
   32          1
                                   No pseudopotential on this center.
   33          6
                                   No pseudopotential on this center.
   34          6
                                   No pseudopotential on this center.
   35          6
                                   No pseudopotential on this center.
   36          1
                                   No pseudopotential on this center.
   37          1
                                   No pseudopotential on this center.
   38          6
                                   No pseudopotential on this center.
   39          1
                                   No pseudopotential on this center.
   40          1
                                   No pseudopotential on this center.
   41          1
                                   No pseudopotential on this center.
   42          1
                                   No pseudopotential on this center.
   43          1
                                   No pseudopotential on this center.
   44          1
                                   No pseudopotential on this center.
   45          7
                                   No pseudopotential on this center.
   46          8
                                   No pseudopotential on this center.
   47         53           25
                                      G and up 
                                                     2        1.0000000        0.00000000    0.00000000
                                      S - G
                                                     2       40.0158350       49.99429300    0.00000000
                                                     2       17.4297470      281.02531700    0.00000000
                                                     2        9.0054840       61.57332600    0.00000000
                                      P - G
                                                     2       15.3554660       67.44284100 -134.88568300
                                                     2       14.9718330      134.88113700  134.88113700
                                                     2        8.9601640       14.67505100  -29.35010100
                                                     2        8.2590960       29.37566600   29.37566600
                                      D - G
                                                     2       15.0689080       35.43952900  -35.43952900
                                                     2       14.5553220       53.17605700   35.45070400
                                                     2        6.7186470        9.06719500   -9.06719500
                                                     2        6.4563930       13.20693700    8.80462400
                                                     2        1.1917790        0.08933500   -0.08933500
                                                     2        1.2911570        0.05238000    0.03492000
                                      F - G
                                                     2       19.4586090      -21.84204000   14.56136000
                                                     2       19.3492600      -28.46819100  -14.23409500
                                                     2        4.8237670       -0.24371300    0.16247500
                                                     2        4.8843150       -0.32080400   -0.16040200
   48          1
                                   No pseudopotential on this center.
   49          6
                                   No pseudopotential on this center.
   50          6
                                   No pseudopotential on this center.
   51          6
                                   No pseudopotential on this center.
   52          6
                                   No pseudopotential on this center.
   53          6
                                   No pseudopotential on this center.
   54          6
                                   No pseudopotential on this center.
   55          1
                                   No pseudopotential on this center.
   56          1
                                   No pseudopotential on this center.
   57          6
                                   No pseudopotential on this center.
   58          6
                                   No pseudopotential on this center.
   59          1
                                   No pseudopotential on this center.
   60          1
                                   No pseudopotential on this center.
   61          6
                                   No pseudopotential on this center.
   62          6
                                   No pseudopotential on this center.
   63          1
                                   No pseudopotential on this center.
   64          6
                                   No pseudopotential on this center.
   65          6
                                   No pseudopotential on this center.
   66          6
                                   No pseudopotential on this center.
   67          6
                                   No pseudopotential on this center.
   68          6
                                   No pseudopotential on this center.
   69          6
                                   No pseudopotential on this center.
   70          6
                                   No pseudopotential on this center.
   71          6
                                   No pseudopotential on this center.
   72          6
                                   No pseudopotential on this center.
   73          1
                                   No pseudopotential on this center.
   74          1
                                   No pseudopotential on this center.
   75          6
                                   No pseudopotential on this center.
   76          1
                                   No pseudopotential on this center.
   77          1
                                   No pseudopotential on this center.
   78          1
                                   No pseudopotential on this center.
   79         16
                                   No pseudopotential on this center.
   80          8
                                   No pseudopotential on this center.
   81          8
                                   No pseudopotential on this center.
   82         16
                                   No pseudopotential on this center.
   83          8
                                   No pseudopotential on this center.
   84          8
                                   No pseudopotential on this center.
   85          7
                                   No pseudopotential on this center.
   86          1
                                   No pseudopotential on this center.
   87          1
[...]
 93,0.00000755,-0.00000298,0.00001080,-0.00000060,-0.00000098,-0.000000
 24,-0.00000553,0.00000241,-0.00000188,0.00000504,-0.00000298,0.0000344
 3,-0.00107334,-0.00063212,-0.00004523,0.00002218,-0.00001849,-0.000004
 33,-0.00000893,0.00000642,0.00000003,-0.00000313,0.00000200,-0.0000497
 5,0.00003841,0.00005070,0.00005034,0.00001917,0.00011025,-0.00000245,0
 .00000074,-0.00000883,-0.00420525,-0.00091783,0.00293358,-0.00796940,-
 0.02054145,-0.01154538,-0.00040258,0.00089676,0.00064089,-0.11659839,-
 0.10916401,-0.05354149,-0.00052974,0.00050116,0.00438671,-0.00000441,-
 0.00012942,-0.00038626,0.01154970,0.01272783,0.00742552,0.00066612,0.0
 0017508,-0.00003335,-0.00027153,0.00004567,0.00019440,0.00001741,0.000
 01895,0.00002632,0.00010128,0.00061334,-0.00184707,0.00010473,0.000416
 11,0.00006549,-0.00001298,-0.00004885,0.00003376,0.00001186,-0.0000109
 3,0.00000884,0.00003870,0.00006957,0.00003699,-0.00043890,-0.00065999,
 -0.00047690,0.00004967,0.00021946,0.00010973,0.00016967,0.00007206,0.0
 0007994,-0.00449253,-0.00416246,-0.00293240,0.00085144,0.00078603,-0.0
 0015990,0.00301817,0.00151659,0.00004591,0.00085181,0.00043228,0.00097
 481,0.11795008,0.00000412,0.00000226,-0.00000633,-0.00000286,-0.000004
 18,-0.00001020,0.00002691,0.00001176,0.00001377,-0.00002745,0.00000005
 ,-0.00001329,0.00003349,-0.00000011,0.00000895,-0.00000835,-0.00000466
 ,0.00000750,0.00000238,-0.00000224,0.00000216,-0.00000759,-0.00000168,
 0.00000172,0.00000382,-0.00000074,0.00000086,-0.00000134,-0.00000026,0
 .00000053,-0.00000596,-0.00000117,0.00000225,0.00000137,-0.00000046,0.
 00000058,-0.00000044,-0.00000005,-0.00000008,-0.00000052,-0.00000019,-
 0.00000006,0.00000085,0.00000036,-0.00000165,0.00002739,-0.00000010,-0
 .00000590,0.00000014,-0.00000102,-0.00000025,-0.00000034,0.00000078,0.
 00000044,-0.00000072,0.00000055,0.00000056,-0.00000031,0.00000010,0.00
 000022,0.00000044,0.00000002,-0.00000030,-0.00000056,-0.00000025,0.000
 00062,0.00000049,-0.00000028,-0.00000085,-0.00000045,0.00000003,0.0000
 0011,-0.00000006,0.00000006,-0.00000034,0.00000054,0.,-0.00000020,0.00
 000010,0.00000025,-0.00000029,-0.00001926,0.00000279,0.00000126,-0.000
 01448,-0.00000213,-0.00000053,0.00001387,-0.00001442,-0.00000395,-0.00
 000273,0.00000202,0.00000182,0.00000131,-0.00000880,0.00000593,-0.0000
 0067,-0.00000007,0.00000231,0.00000533,0.00000231,-0.00000002,0.000006
 12,-0.00000308,0.00000126,-0.00000001,-0.00000138,0.00000024,0.0000009
 6,0.00000020,-0.00000056,0.00000108,-0.00000307,-0.00000074,0.00000039
 ,-0.00000014,0.00000013,-0.00000135,-0.00000034,-0.00000040,-0.0000001
 3,0.00000022,-0.00000009,-0.00000030,0.00000047,-0.00000016,0.00000034
 ,0.00000008,0.00000043,-0.00000101,0.00000074,-0.00000061,-0.00001332,
 0.00000479,-0.00000889,-0.00000596,0.00000135,-0.00000090,0.00000060,-
 0.00000132,-0.00000075,0.,0.00000089,0.00000654,0.00001247,0.00000078,
 -0.00000478,0.00000524,-0.00000891,0.00001759,-0.00000439,0.00004544,-
 0.00003402,-0.00000292,-0.00000018,-0.00001191,0.00000724,-0.00000241,
 0.00000363,-0.00000595,-0.00000477,-0.00000132,-0.00000033,-0.00000418
 ,0.00000263,-0.00000433,0.00000253,-0.00000215,0.00015459,0.00007196,-
 0.00022573,-0.00001683,-0.00000931,0.00000920,-0.00000052,-0.00000037,
 0.00000263,-0.00000031,-0.00000152,0.00000044,0.00002307,0.00000726,0.
 00000585,-0.00004932,0.00004606,0.00004699,-0.00000075,-0.00000352,-0.
 00000131,-0.00096786,0.00262721,-0.00094909,-0.00333901,-0.00086833,-0
 .00225178,0.00060635,-0.00018292,0.00007431,-0.10937829,-0.23330726,-0
 .10520036,0.00060223,0.00257271,-0.00511408,0.00007865,-0.00003277,0.0
 0044910,-0.00914731,-0.00587620,-0.00540995,-0.00058305,-0.00012351,0.
 00010309,0.00026925,0.00005293,-0.00014057,-0.00001168,0.00001290,-0.0
 0001016,0.00091242,-0.00123773,0.00291703,0.00008601,-0.00049656,0.000
 02270,-0.00000495,0.00006741,-0.00007474,-0.00001370,0.00001214,-0.000
 02846,-0.00004191,-0.00004194,-0.00002334,-0.00000117,-0.00002147,0.00
 001833,-0.00002577,0.00000116,0.00000012,-0.00006020,0.00002446,0.0000
 0106,0.00145104,-0.00139675,0.00042288,-0.00059174,0.00019195,0.000324
 35,0.00179991,-0.00132620,-0.00139371,0.00019596,-0.00022215,-0.000177
 36,0.11803544,0.23945301,0.00003028,-0.00000848,0.00001735,-0.00001669
 ,0.00000328,0.00000570,0.00000528,-0.00001334,0.00002015,-0.00001287,-
 0.00000387,-0.00001380,0.00000559,-0.00002362,0.00003252,-0.00000139,0
 .00002027,-0.00003385,-0.00000459,0.00000633,-0.00000077,-0.00000423,0
 .00000399,-0.00000231,0.00000187,-0.00000156,0.00000029,-0.00000249,0.
 00000237,-0.00000168,-0.00000910,-0.00000240,0.00000087,0.00000270,-0.
 00000146,0.00000017,-0.00000044,0.00000024,0.00000039,-0.00000028,0.00
 000001,0.00000049,0.00000163,0.00000127,0.00000041,0.00005122,-0.00000
 465,-0.00000095,0.00000057,-0.00000206,0.00000086,-0.00000011,0.000001
 48,-0.00000039,-0.00000060,0.00000123,0.00000009,-0.00000007,0.0000001
 7,-0.00000035,0.00000006,-0.00000010,0.00000037,0.,-0.00000055,-0.0000
 0051,0.00000015,-0.00000094,0.00000009,-0.00000031,0.00000057,-0.00000
 070,-0.00000051,0.00000005,0.,-0.00000007,0.00000021,0.00000040,-0.000
 00042,0.00000017,0.00000008,-0.00003088,0.00000117,0.00000016,-0.00000
 631,-0.00001264,0.00000229,0.00001773,-0.00004053,0.00002725,0.0000033
 8,-0.00000055,-0.00000168,-0.00000520,0.00002377,-0.00001052,-0.000007
 55,-0.00000578,0.00000599,0.00000187,0.00000446,-0.00000141,-0.0000018
 1,-0.00000028,-0.00000146,0.00000001,0.00000249,0.00000193,-0.00000071
 ,0.00000121,-0.00000323,-0.00000328,-0.00000635,0.00000549,0.00000077,
 -0.00000042,0.00000074,-0.00000222,-0.00000083,-0.00000040,0.00000032,
 -0.00000077,0.00000033,-0.00000088,0.00000186,-0.00000116,-0.00000005,
 -0.00000016,-0.00000058,0.00000004,0.00000118,-0.00000037,-0.00000678,
 0.00001178,-0.00001936,0.00000709,0.00000275,-0.00000472,0.00000076,0.
 00000111,-0.00000376,0.00003298,-0.00003829,-0.00002004,-0.00001432,0.
 00000318,-0.00000066,-0.00001104,0.00001743,-0.00000743,0.00005446,-0.
 00001732,0.00001847,0.00001726,-0.00000687,-0.00001257,0.00000223,0.00
 000520,-0.00000670,0.00000518,-0.00000239,0.00000879,0.00000020,0.0000
 0027,-0.00000268,0.00000556,0.00000738,-0.00000759,0.00001741,0.000329
 77,0.00040131,0.00001847,0.00003739,-0.00001402,-0.00000060,-0.0000001
 1,-0.00000360,0.00000034,0.00000069,0.00000013,-0.00005077,-0.00005172
 ,0.00001679,0.00007026,-0.00006417,-0.00015431,-0.00000227,-0.00000178
 ,0.00000188,0.00300138,-0.00207121,0.00175010,0.00389446,0.00623174,0.
 00652389,-0.00007710,0.00041938,-0.00024832,-0.05532455,-0.10512149,-0
 .09945693,0.00434818,-0.00497164,0.00345342,-0.00024562,0.00030846,-0.
 00031560,-0.00929133,-0.01501601,-0.00250678,-0.00057255,-0.00044762,-
 0.00013764,0.00005758,0.00001139,0.00008016,0.00000245,-0.00003885,0.0
 0000844,-0.00155459,0.00311425,-0.00240498,0.00006108,0.00018684,-0.00
 051944,0.00006558,-0.00007345,0.00009168,0.00000385,-0.00003595,0.0000
 3042,-0.00003964,-0.00005239,-0.00002808,0.00026285,0.00043362,0.00069
 023,0.00005572,-0.00007109,-0.00021604,-0.00017936,-0.00003015,-0.0001
 5491,0.00194971,0.00197377,-0.00070117,0.00011593,-0.00025433,-0.00034
 001,0.00013056,-0.00138540,-0.00141882,-0.00118698,0.00007222,-0.00049
 096,0.05435654,0.11663255,0.09607087,0.00013922,-0.00028065,-0.0000643
 9,0.00000122,-0.00004050,-0.00004603,-0.00003376,-0.00001107,-0.000005
 03,-0.00001981,0.00002589,0.00001943,0.00002664,-0.00014782,0.00014011
 ,-0.00001807,0.00012119,-0.00008801,0.00000137,-0.00000317,-0.00000181
 ,0.00010940,0.00003154,0.00011237,-0.00011279,-0.00004583,-0.00000314,
 -0.00011195,0.00010476,-0.00017509,-0.00032855,0.00002537,0.00024907,0
 .00020210,-0.00012757,0.00009664,-0.00000443,0.00000760,0.00000408,-0.
 00001655,-0.00000245,0.00000657,0.00002037,-0.00001506,-0.00006981,0.0
 0113345,0.00022674,-0.00001070,-0.00001127,-0.00001992,0.00001761,0.00
 000971,0.00003006,0.00000264,-0.00000510,0.00000663,0.00000016,-0.0000
 0825,-0.00000306,-0.00000692,-0.00000993,-0.00000089,-0.00000021,-0.00
 000106,-0.00000753,0.00000299,0.00000093,-0.00000508,-0.00000396,-0.00
 000453,-0.00000132,-0.00000182,-0.00000210,0.00000263,-0.00000175,0.00
 000101,-0.00000038,-0.00000117,0.00000020,-0.00000104,-0.00000123,-0.0
 0090371,0.00010794,0.00007191,0.00000250,0.00000428,0.00000678,-0.0000
 1202,-0.00000941,-0.00000772,0.00000252,0.00000419,-0.00000011,0.00000
 170,0.00000133,-0.00000320,-0.00002233,-0.00000744,0.00000887,0.000032
 96,0.00001177,-0.00000024,0.00002688,-0.00001386,-0.00000016,-0.000000
 58,-0.00000264,0.00000069,0.00000660,0.00000425,-0.00000648,-0.0000005
 1,-0.00001883,-0.00000004,0.00000525,0.00000737,0.00000321,-0.00000632
 ,0.00000017,-0.00000713,-0.00000168,0.00000094,0.00000124,-0.00000373,
 0.00000458,-0.00000217,0.00000099,-0.00000054,0.00000141,-0.00000441,0
 .00000639,-0.00000296,-0.00003870,0.00004922,-0.00006629,-0.00001688,0
 .00000529,-0.00000519,0.00000309,0.00002732,0.00001422,-0.00002510,-0.
 00007898,-0.00004259,-0.00013185,-0.00016831,0.00010498,-0.00004501,0.
 00019757,-0.00016707,0.00012206,-0.00100186,0.00036063,0.00033180,-0.0
 0196989,0.00193767,0.00042026,0.00005986,-0.00001184,0.00022055,-0.000
 17748,-0.00001420,0.00000338,0.00000781,0.00000216,0.00002008,-0.00002
 088,0.00001333,-0.00388288,-0.00221191,0.00193477,0.01031522,-0.007324
 27,0.00235347,-0.00002001,0.00001339,0.00001624,0.00003717,-0.00004568
 ,0.00001151,-0.20432284,0.14251635,-0.03920400,-0.01480918,0.01798982,
 -0.00529218,0.00035703,0.00014415,-0.00074110,-0.00026474,0.00113961,-
 0.00028770,0.00005728,-0.00006649,0.00010385,-0.00029385,-0.00016430,-
 0.00000979,-0.00002208,-0.00006425,0.00003529,0.00001241,0.00001652,0.
 00008592,-0.00000747,-0.00000165,-0.00001996,-0.00003963,-0.00002713,-
 0.00002232,-0.00002307,-0.00001331,-0.00000351,0.00001140,0.00001957,0
 .00000920,-0.00000007,-0.00000504,-0.00000439,-0.00000324,0.00000263,-
 0.00000820,0.00000565,0.00000393,-0.00000102,-0.00000617,0.00000393,0.
 00000918,-0.00000208,0.00000445,0.00000492,-0.00000093,0.00000230,0.00
 000309,-0.00529915,0.00357289,-0.00119974,0.00076230,-0.00051682,-0.00
 026769,0.00351801,0.00041642,-0.00040185,-0.00063581,0.00058680,-0.000
 27119,0.00013274,-0.00021912,0.00004906,0.00015844,-0.00005949,0.00005
 780,0.00103464,-0.00029098,0.00078438,-0.00002099,-0.00000343,0.000009
 00,0.21230668,0.00001918,-0.00025385,-0.00007251,-0.00000496,-0.000039
 90,-0.00005204,-0.00001680,-0.00000419,-0.00000187,-0.00000714,0.00001
 343,0.00000779,-0.00000480,-0.00015241,0.00015530,0.00001869,0.0001537
 9,-0.00003736,0.00000532,-0.00000170,0.00000003,-0.00027409,-0.0000319
 5,-0.00009356,0.00037659,0.00012342,0.00004759,-0.00006280,-0.00017593
 ,0.00015191,0.00025685,-0.00015877,-0.00022481,-0.00030533,0.00009930,
 -0.00008860,-0.00000796,-0.00000210,0.00001113,-0.00001453,0.00000827,
 0.00002537,-0.00000095,0.00004544,0.00010353,0.00042855,-0.00039031,-0
 .00086806,-0.00000031,-0.00002903,0.00000055,0.00000089,0.00002060,0.0
 0000703,-0.00001304,0.00000466,-0.00000164,-0.00000236,-0.00000121,-0.
 00000227,0.00000087,0.00000272,0.00000025,-0.00000040,-0.00000347,0.00
 000192,0.00000048,-0.00000567,-0.00000282,-0.00000441,0.00000257,-0.00
 000288,-0.00000262,0.00000292,-0.00000233,0.00000056,0.00000128,-0.000
 00090,-0.00000066,0.00000075,-0.00000061,-0.00017245,-0.00009857,-0.00
 014624,-0.00000464,0.00000657,-0.00000014,-0.00000691,-0.00001323,-0.0
 0000411,0.00000239,0.00000186,0.00000260,0.00000222,0.00000204,-0.0000
 0276,-0.00002156,-0.00000943,0.00001489,0.00002272,0.00001645,0.000001
 52,0.00002078,-0.00001335,-0.00000227,0.00000046,-0.00000110,0.0000003
 2,0.00000496,0.00000462,-0.00000735,0.00000254,-0.00002417,0.00000442,
 0.00000824,-0.00000314,0.00000486,-0.00000605,-0.00000171,-0.00000265,
 -0.00000096,0.00000048,0.00000145,-0.00000326,0.00000517,-0.00000239,0
 .00000036,0.00000056,0.00000080,-0.00000384,0.00000585,-0.00000269,-0.
 00002863,0.00004988,-0.00006842,-0.00000952,0.00001181,-0.00001051,0.0
 0001273,0.00001883,0.00001474,-0.00001178,-0.00004948,-0.00004328,-0.0
 0035183,-0.00015862,0.00015202,-0.00005814,0.00028786,-0.00036224,-0.0
 0050655,-0.00065309,0.00009834,-0.00204874,-0.00197802,0.00442280,0.00
 097932,0.00007722,-0.00007654,0.00014767,-0.00053710,0.00000391,0.0000
 1308,-0.00000020,0.00001704,0.00001772,-0.00000686,0.00001115,-0.00205
 621,0.00086465,0.00160968,0.01928077,-0.01053930,0.00438937,-0.0000368
 2,0.00001978,0.00005525,0.00008763,-0.00006283,0.00001769,0.14329989,-
 0.18909965,0.04380921,-0.00349836,0.00805271,-0.00133408,-0.00017943,0
 .00044928,-0.00232819,-0.00030740,0.00048747,0.00003629,0.00002748,0.0
 0000371,0.00006440,-0.00012750,-0.00003781,0.00003202,-0.00000710,-0.0
 0002675,-0.00000849,0.00000135,-0.00000555,0.00004493,-0.00000533,0.00
 000288,-0.00002126,-0.00000709,0.00000176,-0.00000661,-0.00001556,-0.0
 0000652,-0.00000201,-0.00000282,0.00000454,0.00000757,0.00000015,0.000
 00081,0.00000523,0.00000147,-0.00000266,-0.00000300,0.00000664,-0.0000
 0231,-0.00000403,-0.00000172,0.00000170,0.00000195,0.00000094,-0.00000
 164,-0.00000110,0.00000013,-0.00000009,0.00000042,-0.00340683,-0.00015
 492,-0.00086631,0.00070023,0.00016618,-0.00023346,-0.00033653,-0.00302
 757,0.00085488,-0.00031642,0.00038253,-0.00028726,0.00006434,-0.000116
 29,0.00006964,0.00016612,0.00000302,0.00008726,0.00060812,-0.00033281,
 0.00053671,-0.00000708,-0.00000086,0.00000456,-0.15231817,0.19680673,-
 0.00019558,-0.00026460,0.00032798,0.00001735,0.00003185,-0.00001950,-0
 .00000808,0.00001149,0.00001685,0.00003211,0.00000443,-0.00002093,-0.0
 0007777,-0.00005412,0.00012647,0.00004791,0.00014195,-0.00026425,0.000
 00293,0.00000432,-0.00000030,0.00019673,0.00002935,0.00002305,-0.00014
 105,-0.00008369,0.00003232,-0.00005429,0.00017243,-0.00014289,-0.00016
 543,0.00003017,-0.00009695,0.00028080,-0.00001790,0.00016263,-0.000011
 09,0.00001824,0.00000433,-0.00001478,-0.00000728,-0.00000373,0.0000002
 8,0.00004065,-0.00012561,0.00056596,-0.00084349,-0.00090335,0.00002101
 ,-0.00005474,0.00004841,0.00000020,0.00003873,-0.00001665,-0.00002279,
 0.00001971,-0.00002387,-0.00000431,0.00000223,-0.00000182,-0.00000046,
 -0.00000184,0.00000944,0.00000468,0.00000075,-0.00000168,-0.00000078,-
 0.00000921,0.00000125,-0.00001075,0.00001207,-0.00000924,-0.00000754,0
 .00000427,-0.00000169,-0.00000220,0.00000506,-0.00000055,-0.00000156,0
 .00000170,-0.00000032,-0.00036392,0.00008745,-0.00024644,0.00000253,-0
 .00000037,-0.00001795,0.00000666,0.00001326,0.00001300,0.00000097,-0.0
 0000910,0.00000077,0.00000493,0.00000112,0.00000044,-0.00001194,-0.000
 00297,0.00000631,0.00001517,0.00000827,0.00001184,0.00000900,0.0000019
 0,-0.00000129,0.00000095,0.00000279,0.00000074,0.00000229,0.00000588,-
 0.00000906,-0.00000836,-0.00000273,0.00000277,-0.00000081,0.00000664,0
 .00001133,-0.00000579,0.00000346,-0.00001217,0.00000073,-0.00000283,-0
 .00000106,-0.00000147,0.00000268,-0.00000062,-0.00000033,-0.00000667,-
 0.00000128,-0.00000106,0.00000374,0.00000051,-0.00000042,0.00002584,-0
 .00005806,0.00000109,-0.00000494,-0.00000808,0.00002341,-0.00000094,-0
 .00002111,-0.00005166,-0.00001851,0.00003472,-0.00008807,-0.00012964,0
 .00016461,-0.00020555,-0.00009562,-0.00057425,-0.00010426,-0.00070578,
 -0.00031199,0.00199918,0.00424620,0.00703823,-0.00038485,0.00035029,-0
 .00006895,0.00022086,-0.00017468,-0.00056969,-0.00000368,0.00002152,0.
 00004676,-0.00000213,0.00003062,0.00002395,0.00153906,0.00283803,0.003
 14674,-0.00828863,0.00812052,0.00286751,0.00002684,0.00006545,0.000138
 48,-0.00002805,0.00001884,-0.00000961,-0.04080211,0.04277085,-0.052247
 09,0.00587008,-0.00437602,0.00429294,-0.00054412,-0.00241896,-0.004385
 22,0.00003362,-0.00028091,0.00026200,0.00004684,0.00013830,-0.00010738
 ,0.00001511,0.00002148,0.00004313,-0.00006975,0.00001830,0.00003522,0.
 00001499,0.00001462,0.00000642,-0.00001137,-0.00001745,-0.00002340,0.0
 0002659,-0.00002644,-0.00002989,0.00000002,-0.00000427,-0.00001124,-0.
 00001610,-0.00000406,0.00000139,0.00000754,-0.00000128,-0.00000515,-0.
 00000218,-0.00000037,0.00000122,0.00000970,0.00000108,0.00000925,-0.00
 000147,0.00000141,-0.00000310,0.00000051,-0.00000015,-0.00000314,0.000
 00084,-0.00000073,0.00000017,0.00136044,-0.00093559,-0.00163360,0.0003
 1159,0.00049690,-0.00032940,-0.00023173,0.00094702,-0.00071603,0.00034
 215,-0.00043337,0.00042674,0.00006138,0.00012901,-0.00011816,-0.000131
 98,0.00003719,-0.00012540,-0.00096104,-0.00039567,-0.00032374,0.000009
 61,-0.00000250,0.00000225,0.03990669,-0.04961063,0.04426467\\0.0000018
 5,0.00000449,-0.00000827,0.00000205,-0.00000514,-0.00002446,-0.0000026
 2,-0.00000430,0.00001628,-0.00000635,-0.00000045,0.00000196,0.00000724
 ,-0.00000306,-0.00000310,-0.00000547,-0.00000243,0.00000978,-0.0000007
 7,0.00000352,0.00000580,0.00000059,-0.00000471,0.00000083,-0.00000005,
 -0.00000129,-0.00000444,-0.00000387,-0.00000643,-0.00000211,0.00000232
 ,-0.00000319,-0.00000557,-0.00000666,-0.00000135,-0.00000732,-0.000002
 96,-0.00000365,-0.00000626,-0.00000392,-0.00000426,-0.00000649,-0.0000
 0357,-0.00000368,-0.00000385,-0.00001942,-0.00000505,-0.00000034,-0.00
 000689,-0.00000391,-0.00000599,0.00000227,-0.00000303,-0.00000282,-0.0
 0000190,-0.00000093,-0.00000259,-0.00000062,0.00000040,-0.00000569,-0.
 00000033,-0.00000213,-0.00000599,0.00000005,-0.00000166,-0.00000081,-0
 .00000565,-0.00000152,-0.00000075,-0.00000274,-0.00000345,-0.00000607,
 -0.00000001,-0.00000163,-0.00000637,-0.00000378,-0.00000269,-0.0000014
 5,-0.00000143,-0.00000212,-0.00000391,0.00000915,0.00000185,-0.0000045
 2,-0.00000022,0.00000341,0.00000316,-0.00000206,-0.00000222,0.00000651
 ,-0.00000313,-0.00000123,0.00000615,-0.00000156,0.00000048,0.00000688,
 0.00000088,0.00000127,0.00000143,0.00000226,0.00000295,-0.00000054,0.0
 0000455,0.00000119,0.00000458,0.00000244,0.00000498,0.00000539,0.00000
 446,0.00000274,0.00000192,0.00000006,-0.00000155,0.00000050,-0.0000001
 0,0.00000080,-0.00000248,0.00000322,0.00000009,-0.00000160,0.00000022,
 0.00000145,0.00000290,0.00000312,0.00000299,0.00000365,0.00000078,-0.0
 0000096,0.00000136,0.00000168,0.00000144,-0.00000193,-0.00000011,0.000
 00391,-0.00000037,0.00000121,0.00000156,-0.00000099,-0.00000364,-0.000
 00508,0.00000091,-0.00001019,-0.00000518,0.00003112,-0.00000030,-0.000
 00053,-0.00000278,0.00000009,0.,-0.00000103,-0.00000049,0.00000200,-0.
 00000032,0.00000280,-0.00000350,-0.00000198,0.00000066,-0.00000180,-0.
 00000509,-0.00000072,-0.00000223,-0.00000404,0.00000020,-0.00000025,-0
 .00000211,0.00000076,-0.00000007,0.00000094,-0.00000164,0.00000496,0.0
 0000455,-0.00000282,0.00000032,-0.00000454,-0.00000048,-0.00000126,-0.
 00000634,-0.00000039,-0.00000186,-0.00000571,0.00000213,-0.00000105,-0
 .00000432,-0.00000007,-0.00000391,0.00000523,-0.00000003,-0.00000069,-
 0.00000545,0.00000352,-0.00000029,-0.00000505,-0.00000088,-0.00000559,
 0.00000180,0.00000345,0.00000782,0.00000733,-0.00000476,0.00000335,0.0
 0001063,0.00000441,0.00000357,0.00000312,0.00000293,0.00000041,-0.0000
 0150,0.00000360,0.00000109,0.00000377,0.00000336,0.00000221,0.00000296
 ,0.00000378,0.00000374,0.00000169,0.00000391,0.00000197,-0.00000106,0.
 00000183,0.00000436,0.00000845,0.00000721,0.00000586,0.00000254,0.0000
 0474,0.00000503,0.00000588,0.00000613,0.00000398,-0.00000079,0.0000068
 7,0.00000510,0.00000274,0.00002501,0.00000245,0.00001338,0.00000922,0.
 00000222,-0.00000992,0.00000245,0.00000747,0.00000318,-0.00000151,-0.0
 0000388,-0.00003374,-0.00001239,-0.00000379,0.00001688,0.00000439,0.00
 000940,0.00000414,-0.00002688,0.00000063,0.00000963,0.00000066,0.00000
 166,0.00000550,-0.00000115,-0.00000012,-0.00000263\\\@
 The archive entry for this job was punched.


 THE RED LIGHT IS ALWAYS LONGER THAN THE GREEN LIGHT.

                     -- PETER'S THEORY OF RELATIVITY
 Job cpu time:       1 days 14 hours 23 minutes  3.3 seconds.
 Elapsed time:       0 days  1 hours 12 minutes 29.2 seconds.
 File lengths (MBytes):  RWF=   9638 Int=      0 D2E=      0 Chk=    111 Scr=      1
 Normal termination of Gaussian 16 at Tue Jun 11 21:08:22 2024.
