 Entering Gaussian System, Link 0=g16
 Initial command:
 /opt/packages/gaussian/g16RevC.01/g16/l1.exe "/local/Gau-54005.inp" -scrdir="/local/"
 Entering Link 1 = /opt/packages/gaussian/g16RevC.01/g16/l1.exe PID=     54006.
  
 Copyright (c) 1988-2019, Gaussian, Inc.  All Rights Reserved.
  
 This is part of the Gaussian(R) 16 program.  It is based on
 the Gaussian(R) 09 system (copyright 2009, Gaussian, Inc.),
 the Gaussian(R) 03 system (copyright 2003, Gaussian, Inc.),
 the Gaussian(R) 98 system (copyright 1998, Gaussian, Inc.),
 the Gaussian(R) 94 system (copyright 1995, Gaussian, Inc.),
 the Gaussian 92(TM) system (copyright 1992, Gaussian, Inc.),
 the Gaussian 90(TM) system (copyright 1990, Gaussian, Inc.),
 the Gaussian 88(TM) system (copyright 1988, Gaussian, Inc.),
 the Gaussian 86(TM) system (copyright 1986, Carnegie Mellon
 University), and the Gaussian 82(TM) system (copyright 1983,
 Carnegie Mellon University). Gaussian is a federally registered
 trademark of Gaussian, Inc.
  
 This software contains proprietary and confidential information,
 including trade secrets, belonging to Gaussian, Inc.
  
 This software is provided under written license and may be
 used, copied, transmitted, or stored only in accord with that
 written license.
  
 The following legend is applicable only to US Government
 contracts under FAR:
  
                    RESTRICTED RIGHTS LEGEND
  
 Use, reproduction and disclosure by the US Government is
 subject to restrictions as set forth in subparagraphs (a)
 and (c) of the Commercial Computer Software - Restricted
 Rights clause in FAR 52.227-19.
  
 Gaussian, Inc.
 340 Quinnipiac St., Bldg. 40, Wallingford CT 06492
  
  
 ---------------------------------------------------------------
 Warning -- This program may not be used in any manner that
 competes with the business of Gaussian, Inc. or will provide
 assistance to any competitor of Gaussian, Inc.  The licensee
 of this program is prohibited from giving any competitor of
 Gaussian, Inc. access to this program.  By using this program,
 the user acknowledges that Gaussian, Inc. is engaged in the
 business of creating and licensing software in the field of
 computational chemistry and represents and warrants to the
 licensee that it is not a competitor of Gaussian, Inc. and that
 it will not use this program in any manner prohibited above.
 ---------------------------------------------------------------
  

 Cite this work as:
 Gaussian 16, Revision C.01,
 M. J. Frisch, G. W. Trucks, H. B. Schlegel, G. E. Scuseria, 
 M. A. Robb, J. R. Cheeseman, G. Scalmani, V. Barone, 
 G. A. Petersson, H. Nakatsuji, X. Li, M. Caricato, A. V. Marenich, 
 J. Bloino, B. G. Janesko, R. Gomperts, B. Mennucci, H. P. Hratchian, 
 J. V. Ortiz, A. F. Izmaylov, J. L. Sonnenberg, D. Williams-Young, 
 F. Ding, F. Lipparini, F. Egidi, J. Goings, B. Peng, A. Petrone, 
 T. Henderson, D. Ranasinghe, V. G. Zakrzewski, J. Gao, N. Rega, 
 G. Zheng, W. Liang, M. Hada, M. Ehara, K. Toyota, R. Fukuda, 
 J. Hasegawa, M. Ishida, T. Nakajima, Y. Honda, O. Kitao, H. Nakai, 
 T. Vreven, K. Throssell, J. A. Montgomery, Jr., J. E. Peralta, 
 F. Ogliaro, M. J. Bearpark, J. J. Heyd, E. N. Brothers, K. N. Kudin, 
 V. N. Staroverov, T. A. Keith, R. Kobayashi, J. Normand, 
 K. Raghavachari, A. P. Rendell, J. C. Burant, S. S. Iyengar, 
 J. Tomasi, M. Cossi, J. M. Millam, M. Klene, C. Adamo, R. Cammi, 
 J. W. Ochterski, R. L. Martin, K. Morokuma, O. Farkas, 
 J. B. Foresman, and D. J. Fox, Gaussian, Inc., Wallingford CT, 2019.
 
 ******************************************
 Gaussian 16:  ES64L-G16RevC.01  3-Jul-2019
                11-Jun-2024 
 ******************************************
 %nprocshared=32
 Will use up to   32 processors via shared memory.
 %mem=64GB
 ----------------------------------------------------------------------
 #p m062x genecp opt freq nosymm scrf=(smd,solvent=propylethanoate) emp
 iricaldispersion=gd3 scf=(xqc,maxcycles=128)
 ----------------------------------------------------------------------
 1/18=20,19=15,26=3,38=1/1,3;
 2/9=110,12=2,15=1,17=6,18=5,40=1/2;
 3/5=7,11=2,16=1,17=8,25=1,30=1,70=32201,71=1,72=169,74=-55,124=31/1,2,3;
 4//1;
 5/5=2,7=128,8=3,13=1,38=5,53=169/2,8;
 6/7=2,8=2,9=2,10=2,28=1/1;
 7/30=1/1,2,3,16;
 1/18=20,19=15,26=3/3(2);
 2/9=110,15=1/2;
 99//99;
 2/9=110,15=1/2;
 3/5=7,6=1,11=2,16=1,17=8,25=1,30=1,70=32205,71=1,72=169,74=-55,82=7,124=31/1,2,3;
 4/5=5,16=3,69=1/1;
 5/5=2,7=128,8=3,13=1,38=5,53=169/2,8;
 7/30=1/1,2,3,16;
 1/18=20,19=15,26=3/3(-5);
 2/9=110,15=1/2;
 6/7=2,8=2,9=2,10=2,19=2,28=1/1;
 99/9=1/99;
 Leave Link    1 at Tue Jun 11 17:26:35 2024, MaxMem=  8589934592 cpu:               1.0 elap:               0.0
 (Enter /opt/packages/gaussian/g16RevC.01/g16/l101.exe)
 -------------------
 Title Card Required
 -------------------
 Symbolic Z-matrix:
 Charge =  0 Multiplicity = 1
 N                    -2.44654   0.67826  -0.30526 
 C                    -3.10759   1.54065   0.57067 
 C                    -2.27814   1.61165   1.84006 
 C                    -1.10139   0.66293   1.61648 
 C                    -1.27021   0.12775   0.20598 
 O                    -0.55379  -0.62954  -0.38726 
 O                    -4.13659   2.10738   0.32836 
 H                    -1.97453   2.65739   1.98629 
 H                    -2.91877   1.33255   2.68716 
 H                    -1.09486  -0.19461   2.30339 
 H                    -0.11926   1.14921   1.68609 
 I                    -3.14522   0.24874  -2.17377 
 
 ITRead=  0  0  0  0  0  0  0  0  0  0  0  0
 MicOpt= -1 -1 -1 -1 -1 -1 -1 -1 -1 -1 -1 -1
 NAtoms=     12 NQM=       12 NQMF=       0 NMMI=      0 NMMIF=      0
                NMic=       0 NMicF=      0.
                    Isotopes and Nuclear Properties:
 (Nuclear quadrupole moments (NQMom) in fm**2, nuclear magnetic moments (NMagM)
  in nuclear magnetons)

  Atom         1           2           3           4           5           6           7           8           9          10
 IAtWgt=          14          12          12          12          12          16          16           1           1           1
 AtmWgt=  14.0030740  12.0000000  12.0000000  12.0000000  12.0000000  15.9949146  15.9949146   1.0078250   1.0078250   1.0078250
 NucSpn=           2           0           0           0           0           0           0           1           1           1
 AtZEff=   0.0000000   0.0000000   0.0000000   0.0000000   0.0000000   0.0000000   0.0000000   0.0000000   0.0000000   0.0000000
 NQMom=    2.0440000   0.0000000   0.0000000   0.0000000   0.0000000   0.0000000   0.0000000   0.0000000   0.0000000   0.0000000
 NMagM=    0.4037610   0.0000000   0.0000000   0.0000000   0.0000000   0.0000000   0.0000000   2.7928460   2.7928460   2.7928460
 AtZNuc=   7.0000000   6.0000000   6.0000000   6.0000000   6.0000000   8.0000000   8.0000000   1.0000000   1.0000000   1.0000000

  Atom        11          12
 IAtWgt=           1         127
 AtmWgt=   1.0078250 126.9004000
 NucSpn=           1           5
 AtZEff=   0.0000000   0.0000000
 NQMom=    0.0000000 -71.0000000
 NMagM=    2.7928460   2.8132800
 AtZNuc=   1.0000000  53.0000000
 Leave Link  101 at Tue Jun 11 17:26:35 2024, MaxMem=  8589934592 cpu:               4.7 elap:               0.2
 (Enter /opt/packages/gaussian/g16RevC.01/g16/l103.exe)

 GradGradGradGradGradGradGradGradGradGradGradGradGradGradGradGradGradGrad
 Berny optimization.
 Initialization pass.
                           ----------------------------
                           !    Initial Parameters    !
                           ! (Angstroms and Degrees)  !
 --------------------------                            --------------------------
 ! Name  Definition              Value          Derivative Info.                !
 --------------------------------------------------------------------------------
 ! R1    R(1,2)                  1.3957         estimate D2E/DX2                !
 ! R2    R(1,5)                  1.3958         estimate D2E/DX2                !
 ! R3    R(1,12)                 2.0406         estimate D2E/DX2                !
 ! R4    R(2,3)                  1.518          estimate D2E/DX2                !
 ! R5    R(2,7)                  1.1995         estimate D2E/DX2                !
 ! R6    R(3,4)                  1.528          estimate D2E/DX2                !
 ! R7    R(3,8)                  1.0987         estimate D2E/DX2                !
 ! R8    R(3,9)                  1.0981         estimate D2E/DX2                !
 ! R9    R(4,5)                  1.518          estimate D2E/DX2                !
 ! R10   R(4,10)                 1.0988         estimate D2E/DX2                !
 ! R11   R(4,11)                 1.0981         estimate D2E/DX2                !
 ! R12   R(5,6)                  1.1994         estimate D2E/DX2                !
 ! A1    A(2,1,5)              114.3935         estimate D2E/DX2                !
 ! A2    A(2,1,12)             122.8585         estimate D2E/DX2                !
 ! A3    A(5,1,12)             122.7471         estimate D2E/DX2                !
 ! A4    A(1,2,3)              107.1518         estimate D2E/DX2                !
 ! A5    A(1,2,7)              124.8536         estimate D2E/DX2                !
 ! A6    A(3,2,7)              127.9939         estimate D2E/DX2                !
 ! A7    A(2,3,4)              105.629          estimate D2E/DX2                !
 ! A8    A(2,3,8)              107.8667         estimate D2E/DX2                !
 ! A9    A(2,3,9)              108.3252         estimate D2E/DX2                !
 ! A10   A(4,3,8)              113.4295         estimate D2E/DX2                !
 ! A11   A(4,3,9)              113.8502         estimate D2E/DX2                !
 ! A12   A(8,3,9)              107.4844         estimate D2E/DX2                !
 ! A13   A(3,4,5)              105.6168         estimate D2E/DX2                !
 ! A14   A(3,4,10)             113.4333         estimate D2E/DX2                !
 ! A15   A(3,4,11)             113.8632         estimate D2E/DX2                !
 ! A16   A(5,4,10)             107.842          estimate D2E/DX2                !
 ! A17   A(5,4,11)             108.3296         estimate D2E/DX2                !
 ! A18   A(10,4,11)            107.4974         estimate D2E/DX2                !
 ! A19   A(1,5,4)              107.158          estimate D2E/DX2                !
 ! A20   A(1,5,6)              124.8368         estimate D2E/DX2                !
 ! A21   A(4,5,6)              128.0044         estimate D2E/DX2                !
 ! D1    D(5,1,2,3)              0.8244         estimate D2E/DX2                !
 ! D2    D(5,1,2,7)           -179.4507         estimate D2E/DX2                !
 ! D3    D(12,1,2,3)          -179.4983         estimate D2E/DX2                !
 ! D4    D(12,1,2,7)             0.2266         estimate D2E/DX2                !
 ! D5    D(2,1,5,4)              0.6556         estimate D2E/DX2                !
 ! D6    D(2,1,5,6)           -179.6388         estimate D2E/DX2                !
 ! D7    D(12,1,5,4)          -179.0221         estimate D2E/DX2                !
 ! D8    D(12,1,5,6)             0.6835         estimate D2E/DX2                !
 ! D9    D(1,2,3,4)             -1.9227         estimate D2E/DX2                !
 ! D10   D(1,2,3,8)            119.6773         estimate D2E/DX2                !
 ! D11   D(1,2,3,9)           -124.2636         estimate D2E/DX2                !
 ! D12   D(7,2,3,4)            178.3638         estimate D2E/DX2                !
 ! D13   D(7,2,3,8)            -60.0363         estimate D2E/DX2                !
 ! D14   D(7,2,3,9)             56.0228         estimate D2E/DX2                !
 ! D15   D(2,3,4,5)              2.2548         estimate D2E/DX2                !
 ! D16   D(2,3,4,10)          -115.6424         estimate D2E/DX2                !
 ! D17   D(2,3,4,11)           120.9867         estimate D2E/DX2                !
 ! D18   D(8,3,4,5)           -115.6783         estimate D2E/DX2                !
 ! D19   D(8,3,4,10)           126.4245         estimate D2E/DX2                !
 ! D20   D(8,3,4,11)             3.0536         estimate D2E/DX2                !
 ! D21   D(9,3,4,5)            120.9821         estimate D2E/DX2                !
 ! D22   D(9,3,4,10)             3.0849         estimate D2E/DX2                !
 ! D23   D(9,3,4,11)          -120.286          estimate D2E/DX2                !
 ! D24   D(3,4,5,1)             -1.8275         estimate D2E/DX2                !
 ! D25   D(3,4,5,6)            178.4791         estimate D2E/DX2                !
 ! D26   D(10,4,5,1)           119.7572         estimate D2E/DX2                !
 ! D27   D(10,4,5,6)           -59.9362         estimate D2E/DX2                !
 ! D28   D(11,4,5,1)          -124.1792         estimate D2E/DX2                !
 ! D29   D(11,4,5,6)            56.1274         estimate D2E/DX2                !
 --------------------------------------------------------------------------------
 Trust Radius=3.00D-01 FncErr=1.00D-07 GrdErr=1.00D-06 EigMax=2.50D+02 EigMin=1.00D-04
 Number of steps in this run=     72 maximum allowed number of steps=    100.
 GradGradGradGradGradGradGradGradGradGradGradGradGradGradGradGradGradGrad

 Leave Link  103 at Tue Jun 11 17:26:36 2024, MaxMem=  8589934592 cpu:               0.5 elap:               0.0
 (Enter /opt/packages/gaussian/g16RevC.01/g16/l202.exe)
                          Input orientation:                          
 ---------------------------------------------------------------------
 Center     Atomic      Atomic             Coordinates (Angstroms)
 Number     Number       Type             X           Y           Z
 ---------------------------------------------------------------------
      1          7           0       -2.446544    0.678260   -0.305259
      2          6           0       -3.107595    1.540650    0.570672
      3          6           0       -2.278138    1.611650    1.840058
      4          6           0       -1.101386    0.662933    1.616480
      5          6           0       -1.270208    0.127752    0.205982
      6          8           0       -0.553794   -0.629541   -0.387259
      7          8           0       -4.136590    2.107381    0.328361
      8          1           0       -1.974527    2.657392    1.986287
      9          1           0       -2.918765    1.332554    2.687164
     10          1           0       -1.094857   -0.194610    2.303391
     11          1           0       -0.119264    1.149206    1.686093
     12         53           0       -3.145220    0.248735   -2.173771
 ---------------------------------------------------------------------
                    Distance matrix (angstroms):
                    1          2          3          4          5
     1  N    0.000000
     2  C    1.395693   0.000000
     3  C    2.345626   1.518019   0.000000
     4  C    2.345797   2.426721   1.528004   0.000000
     5  C    1.395777   2.346331   2.426537   1.518033   0.000000
     6  O    2.302079   3.485579   3.599617   2.446491   1.199448
     7  O    2.302198   1.199470   2.446389   3.599742   3.485693
     8  H    3.064465   2.129536   1.098699   2.208393   3.172480
     9  H    3.099305   2.135064   1.098128   2.213057   3.213340
    10  H    3.064966   3.172469   2.208485   1.098758   2.129270
    11  H    3.098952   3.213645   2.213210   1.098122   2.135127
    12  I    2.040583   3.033550   4.326684   4.326063   3.032084
                    6          7          8          9         10
     6  O    0.000000
     7  O    4.565006   0.000000
     8  H    4.296060   2.779523   0.000000
     9  H    4.346836   2.765394   1.771443   0.000000
    10  H    2.778761   4.295584   3.001381   2.409596   0.000000
    11  H    2.766143   4.347464   2.409718   2.978752   1.771632
    12  I    3.267795   3.270786   4.947548   4.985442   4.944241
                   11         12
    11  H    0.000000
    12  I    4.986563   0.000000
 Symmetry turned off by external request.
 Stoichiometry    C4H4INO2
 Framework group  C1[X(C4H4INO2)]
 Deg. of freedom    30
 Full point group                 C1      NOp   1
 Rotational constants (GHZ):           2.2692001           0.8845289           0.6415775
 Leave Link  202 at Tue Jun 11 17:26:36 2024, MaxMem=  8589934592 cpu:               0.4 elap:               0.0
 (Enter /opt/packages/gaussian/g16RevC.01/g16/l301.exe)
 General basis read from cards:  (5D, 7F)
 Centers:       2      3      4      5      8      9     10     11      1      6
 Centers:       7
 def2svp
 ****
 Centers:      12
 def2tzvp
 ****
 ======================================================================================================
                                       Pseudopotential Parameters
 ======================================================================================================
  Center     Atomic      Valence      Angular      Power
  Number     Number     Electrons     Momentum     of R      Exponent        Coefficient   SO-Coeffient
 ======================================================================================================
    1          7
                                   No pseudopotential on this center.
    2          6
                                   No pseudopotential on this center.
    3          6
                                   No pseudopotential on this center.
    4          6
                                   No pseudopotential on this center.
    5          6
                                   No pseudopotential on this center.
    6          8
                                   No pseudopotential on this center.
    7          8
                                   No pseudopotential on this center.
    8          1
                                   No pseudopotential on this center.
    9          1
                                   No pseudopotential on this center.
   10          1
                                   No pseudopotential on this center.
   11          1
                                   No pseudopotential on this center.
   12         53           25
                                      G and up 
                                                     2        1.0000000        0.00000000    0.00000000
                                      S - G
                                                     2       40.0158350       49.99429300    0.00000000
                                                     2       17.4297470      281.02531700    0.00000000
                                                     2        9.0054840       61.57332600    0.00000000
                                      P - G
                                                     2       15.3554660       67.44284100 -134.88568300
                                                     2       14.9718330      134.88113700  134.88113700
                                                     2        8.9601640       14.67505100  -29.35010100
                                                     2        8.2590960       29.37566600   29.37566600
                                      D - G
                                                     2       15.0689080       35.43952900  -35.43952900
                                                     2       14.5553220       53.17605700   35.45070400
                                                     2        6.7186470        9.06719500   -9.06719500
                                                     2        6.4563930       13.20693700    8.80462400
                                                     2        1.1917790        0.08933500   -0.08933500
                                                     2        1.2911570        0.05238000    0.03492000
                                      F - G
                                                     2       19.4586090      -21.84204000   14.56136000
                                                     2       19.3492600      -28.46819100  -14.23409500
                                                     2        4.8237670       -0.24371300    0.16247500
                                                     2        4.8843150       -0.32080400   -0.16040200
 ======================================================================================================
 Ernie: Thresh=  0.10000D-02 Tol=  0.10000D-05 Strict=F.
   168 basis functions,   312 primitive gaussians,   184 cartesian basis functions
    38 alpha electrons       38 beta electrons
       nuclear repulsion energy       490.4422621446 Hartrees.
 IExCor= 4336 DFT=T Ex+Corr=M062X ExCW=0 ScaHFX=  0.540000
 ScaDFX=  1.000000  1.000000  1.000000  1.000000 ScalE2=  1.000000  1.000000
 IRadAn=      5 IRanWt=     -1 IRanGd=            0 ICorTp=0 IEmpDi=131
 NAtoms=   12 NActive=   12 NUniq=   12 SFac= 1.00D+00 NAtFMM=   60 NAOKFM=F Big=F
 Integral buffers will be    131072 words long.
 Raffenetti 2 integral format.
 Two-electron integral symmetry is turned off.
 R6Disp:  Grimme-D3 Dispersion energy=       -0.0001979709 Hartrees.
 Nuclear repulsion after empirical dispersion term =      490.4420641737 Hartrees.
 ------------------------------------------------------------------------------
 Polarizable Continuum Model (PCM)
 =================================
 Model                : PCM.
 Atomic radii         : SMD-Coulomb.
 Polarization charges : Total charges.
 Charge compensation  : None.
 Solution method      : On-the-fly selection.
 Cavity type          : VdW (van der Waals Surface) (Alpha=1.000).
 Cavity algorithm     : GePol (No added spheres)
                        Default sphere list used, NSphG=   12.
                        Lebedev-Laikov grids with approx.  5.0 points / Ang**2.
                        Smoothing algorithm: York/Karplus (Gamma=1.0000).
                        Polarization charges: spherical gaussians, with
                                              point-specific exponents (IZeta= 3).
                        Self-potential: point-specific (ISelfS= 7).
                        Self-field    : sphere-specific E.n sum rule (ISelfD= 2).
 1st derivatives      : Analytical E(r).r(x)/FMM algorithm (CHGder, D1EAlg=3).
                        Cavity 1st derivative terms included.
 Solvent              : PropylEthanoate, Eps=   5.520500 Eps(inf)=   1.916010
 ------------------------------------------------------------------------------
 Spheres list:
 ISph  on   Nord     Re0    Alpha      Xe            Ye            Ze
    1   N      1    1.8900  1.000     -2.446544      0.678260     -0.305259
    2   C      2    1.8500  1.000     -3.107595      1.540650      0.570672
    3   C      3    1.8500  1.000     -2.278138      1.611650      1.840058
    4   C      4    1.8500  1.000     -1.101386      0.662933      1.616480
    5   C      5    1.8500  1.000     -1.270208      0.127752      0.205982
    6   O      6    2.2940  1.000     -0.553794     -0.629541     -0.387259
    7   O      7    2.2940  1.000     -4.136590      2.107381      0.328361
    8   H      8    1.2000  1.000     -1.974527      2.657392      1.986287
    9   H      9    1.2000  1.000     -2.918765      1.332554      2.687164
   10   H     10    1.2000  1.000     -1.094857     -0.194610      2.303391
   11   H     11    1.2000  1.000     -0.119264      1.149206      1.686093
   12   I     12    1.9800  1.000     -3.145220      0.248735     -2.173771
 ------------------------------------------------------------------------------
 GePol: Number of generator spheres                  =      12
 GePol: Total number of spheres                      =      12
 GePol: Number of exposed spheres                    =      12 (100.00%)
 GePol: Number of points                             =    1310
 GePol: Average weight of points                     =       0.13
 GePol: Minimum weight of points                     =   0.45D-07
 GePol: Maximum weight of points                     =    0.17992
 GePol: Number of points with low weight             =      43
 GePol: Fraction of low-weight points (<1% of avg)   =       3.28%
 GePol: Cavity surface area                          =    173.088 Ang**2
 GePol: Cavity volume                                =    161.777 Ang**3
 ------------------------------------------------------------------------------
 Atomic radii for non-electrostatic terms: SMD-CDS.
 ------------------------------------------------------------------------------
 PCM non-electrostatic energy =        -0.0040839156 Hartrees.
 Nuclear repulsion after PCM non-electrostatic terms =      490.4379802580 Hartrees.
 Leave Link  301 at Tue Jun 11 17:26:36 2024, MaxMem=  8589934592 cpu:               3.0 elap:               0.1
 (Enter /opt/packages/gaussian/g16RevC.01/g16/l302.exe)
 NPDir=0 NMtPBC=     1 NCelOv=     1 NCel=       1 NClECP=     1 NCelD=      1
         NCelK=      1 NCelE2=     1 NClLst=     1 CellRange=     0.0.
 One-electron integrals computed using PRISM.
   1 Symmetry operations used in ECPInt.
 ECPInt:  NShTT=    2485 NPrTT=    9318 LenC2=    2439 LenP2D=    7205.
 LDataN:  DoStor=T MaxTD1= 7 Len=  274
 NBasis=   168 RedAO= T EigKep=  6.74D-04  NBF=   168
 NBsUse=   168 1.00D-06 EigRej= -1.00D+00 NBFU=   168
 Precomputing XC quadrature grid using
 IXCGrd= 4 IRadAn=           5 IRanWt=          -1 IRanGd=           0 AccXCQ= 0.00D+00.
 Defaulting to unpruned grid for atomic number  53.
 Generated NRdTot=       0 NPtTot=           0 NUsed=           0 NTot=          32
 NSgBfM=   184   184   184   184   184 MxSgAt=    12 MxSgA2=    12.
 Leave Link  302 at Tue Jun 11 17:26:36 2024, MaxMem=  8589934592 cpu:               7.5 elap:               0.3
 (Enter /opt/packages/gaussian/g16RevC.01/g16/l303.exe)
 DipDrv:  MaxL=1.
 Leave Link  303 at Tue Jun 11 17:26:37 2024, MaxMem=  8589934592 cpu:               0.6 elap:               0.0
 (Enter /opt/packages/gaussian/g16RevC.01/g16/l401.exe)
 ExpMin= 7.49D-02 ExpMax= 5.90D+03 ExpMxC= 3.41D+02 IAcc=3 IRadAn=         5 AccDes= 0.00D+00
 Harris functional with IExCor= 1009 and IRadAn=       5 diagonalized for initial guess.
 HarFok:  IExCor= 1009 AccDes= 0.00D+00 IRadAn=         5 IDoV= 1 UseB2=F ITyADJ=14
 ICtDFT=  3500011 ScaDFX=  1.000000  1.000000  1.000000  1.000000
 Defaulting to unpruned grid for atomic number  53.
 FoFCou: FMM=F IPFlag=           0 FMFlag=      100000 FMFlg1=           0
         NFxFlg=           0 DoJE=T BraDBF=F KetDBF=T FulRan=T
         wScrn=  0.000000 ICntrl=       500 IOpCl=  0 I1Cent=   200000004 NGrid=           0
         NMat0=    1 NMatS0=      1 NMatT0=    0 NMatD0=    1 NMtDS0=    0 NMtDT0=    0
 Symmetry not used in FoFCou.
 Harris En= -657.414123005375    
 JPrj=0 DoOrth=F DoCkMO=F.
 Leave Link  401 at Tue Jun 11 17:26:37 2024, MaxMem=  8589934592 cpu:               8.6 elap:               0.3
 (Enter /opt/packages/gaussian/g16RevC.01/g16/l502.exe)
 Keep R1 ints in memory in canonical form, NReq=133235122.
 FoFCou: FMM=F IPFlag=           0 FMFlag=           0 FMFlg1=           0
         NFxFlg=           0 DoJE=F BraDBF=F KetDBF=F FulRan=T
         wScrn=  0.000000 ICntrl=       600 IOpCl=  0 I1Cent=           0 NGrid=           0
         NMat0=    1 NMatS0=  14196 NMatT0=    0 NMatD0=    1 NMtDS0=    0 NMtDT0=    0
 Symmetry not used in FoFCou.
 Two-electron integral symmetry not used.
 Closed shell SCF:
 Using DIIS extrapolation, IDIIS=  1040.
 NGot=  8589934592 LenX=  8489088952 LenY=  8489054655
 Requested convergence on RMS density matrix=1.00D-08 within 128 cycles.
 Requested convergence on MAX density matrix=1.00D-06.
 Requested convergence on             energy=1.00D-06.
 No special actions if energy rises.

 Cycle   1  Pass 1  IDiag  1:
 Defaulting to unpruned grid for atomic number  53.
 Defaulting to unpruned grid for atomic number  53.
 Defaulting to unpruned grid for atomic number  53.
 Defaulting to unpruned grid for atomic number  53.
 Defaulting to unpruned grid for atomic number  53.
 Defaulting to unpruned grid for atomic number  53.
 Defaulting to unpruned grid for atomic number  53.
 Defaulting to unpruned grid for atomic number  53.
 Defaulting to unpruned grid for atomic number  53.
 Defaulting to unpruned grid for atomic number  53.
 Defaulting to unpruned grid for atomic number  53.
 Defaulting to unpruned grid for atomic number  53.
 Defaulting to unpruned grid for atomic number  53.
 Defaulting to unpruned grid for atomic number  53.
 Defaulting to unpruned grid for atomic number  53.
 Defaulting to unpruned grid for atomic number  53.
 Defaulting to unpruned grid for atomic number  53.
 Defaulting to unpruned grid for atomic number  53.
 Defaulting to unpruned grid for atomic number  53.
 Defaulting to unpruned grid for atomic number  53.
 Defaulting to unpruned grid for atomic number  53.
 Defaulting to unpruned grid for atomic number  53.
 Defaulting to unpruned grid for atomic number  53.
 Defaulting to unpruned grid for atomic number  53.
 Defaulting to unpruned grid for atomic number  53.
 Defaulting to unpruned grid for atomic number  53.
 Defaulting to unpruned grid for atomic number  53.
 Defaulting to unpruned grid for atomic number  53.
 Defaulting to unpruned grid for atomic number  53.
 Defaulting to unpruned grid for atomic number  53.
 Defaulting to unpruned grid for atomic number  53.
 Defaulting to unpruned grid for atomic number  53.
 Inv3:  Mode=1 IEnd=     5148300.
 Iteration    1 A*A^-1 deviation from unit magnitude is 4.00D-15 for    365.
 Iteration    1 A*A^-1 deviation from orthogonality  is 1.98D-15 for    365    203.
 Iteration    1 A^-1*A deviation from unit magnitude is 3.77D-15 for    365.
 Iteration    1 A^-1*A deviation from orthogonality  is 1.16D-15 for    967    754.
 E= -657.074233720238    
 DIIS: error= 4.04D-02 at cycle   1 NSaved=   1.
 NSaved= 1 IEnMin= 1 EnMin= -657.074233720238     IErMin= 1 ErrMin= 4.04D-02
 ErrMax= 4.04D-02  0.00D+00 EMaxC= 1.00D-01 BMatC= 2.64D-01 BMatP= 2.64D-01
 IDIUse=3 WtCom= 5.96D-01 WtEn= 4.04D-01
 Coeff-Com:  0.100D+01
 Coeff-En:   0.100D+01
 Coeff:      0.100D+01
 Gap=     0.416 Goal=   None    Shift=    0.000
 GapD=    0.416 DampG=2.000 DampE=0.500 DampFc=1.0000 IDamp=-1.
 RMSDP=7.12D-03 MaxDP=2.21D-01              OVMax= 2.37D-01

 Cycle   2  Pass 1  IDiag  1:
 E= -657.010825883957     Delta-E=        0.063407836281 Rises=F Damp=F
 DIIS: error= 5.01D-02 at cycle   2 NSaved=   2.
 NSaved= 2 IEnMin= 1 EnMin= -657.074233720238     IErMin= 1 ErrMin= 4.04D-02
 ErrMax= 5.01D-02  0.00D+00 EMaxC= 1.00D-01 BMatC= 3.58D-01 BMatP= 2.64D-01
 IDIUse=2 WtCom= 0.00D+00 WtEn= 1.00D+00
 Coeff-En:   0.568D+00 0.432D+00
 Coeff:      0.568D+00 0.432D+00
 Gap=     0.295 Goal=   None    Shift=    0.000
 RMSDP=4.05D-03 MaxDP=1.32D-01 DE= 6.34D-02 OVMax= 1.20D-01

 Cycle   3  Pass 1  IDiag  1:
 E= -657.267515773647     Delta-E=       -0.256689889691 Rises=F Damp=F
 DIIS: error= 6.34D-03 at cycle   3 NSaved=   3.
 NSaved= 3 IEnMin= 3 EnMin= -657.267515773647     IErMin= 3 ErrMin= 6.34D-03
 ErrMax= 6.34D-03  0.00D+00 EMaxC= 1.00D-01 BMatC= 1.24D-02 BMatP= 2.64D-01
 IDIUse=3 WtCom= 9.37D-01 WtEn= 6.34D-02
 Coeff-Com:  0.195D+00 0.193D+00 0.612D+00
 Coeff-En:   0.000D+00 0.000D+00 0.100D+01
 Coeff:      0.183D+00 0.180D+00 0.637D+00
 Gap=     0.278 Goal=   None    Shift=    0.000
 RMSDP=8.33D-04 MaxDP=2.29D-02 DE=-2.57D-01 OVMax= 3.22D-02

 Cycle   4  Pass 1  IDiag  1:
 E= -657.276320079513     Delta-E=       -0.008804305866 Rises=F Damp=F
 DIIS: error= 3.21D-03 at cycle   4 NSaved=   4.
 NSaved= 4 IEnMin= 4 EnMin= -657.276320079513     IErMin= 4 ErrMin= 3.21D-03
 ErrMax= 3.21D-03  0.00D+00 EMaxC= 1.00D-01 BMatC= 2.56D-03 BMatP= 1.24D-02
 IDIUse=3 WtCom= 9.68D-01 WtEn= 3.21D-02
 Coeff-Com: -0.222D-02-0.203D-02 0.306D+00 0.698D+00
 Coeff-En:   0.000D+00 0.000D+00 0.151D+00 0.849D+00
 Coeff:     -0.215D-02-0.197D-02 0.301D+00 0.703D+00
 Gap=     0.278 Goal=   None    Shift=    0.000
 RMSDP=2.66D-04 MaxDP=1.04D-02 DE=-8.80D-03 OVMax= 1.18D-02

 Cycle   5  Pass 1  IDiag  1:
 E= -657.278392210609     Delta-E=       -0.002072131096 Rises=F Damp=F
 DIIS: error= 6.27D-04 at cycle   5 NSaved=   5.
 NSaved= 5 IEnMin= 5 EnMin= -657.278392210609     IErMin= 5 ErrMin= 6.27D-04
 ErrMax= 6.27D-04  0.00D+00 EMaxC= 1.00D-01 BMatC= 1.06D-04 BMatP= 2.56D-03
 IDIUse=3 WtCom= 9.94D-01 WtEn= 6.27D-03
 Coeff-Com: -0.768D-02-0.911D-02 0.118D+00 0.320D+00 0.579D+00
 Coeff-En:   0.000D+00 0.000D+00 0.000D+00 0.000D+00 0.100D+01
 Coeff:     -0.763D-02-0.905D-02 0.117D+00 0.318D+00 0.581D+00
 Gap=     0.277 Goal=   None    Shift=    0.000
 RMSDP=6.68D-05 MaxDP=2.32D-03 DE=-2.07D-03 OVMax= 2.69D-03

 Cycle   6  Pass 1  IDiag  1:
 E= -657.278474385778     Delta-E=       -0.000082175169 Rises=F Damp=F
 DIIS: error= 1.84D-04 at cycle   6 NSaved=   6.
 NSaved= 6 IEnMin= 6 EnMin= -657.278474385778     IErMin= 6 ErrMin= 1.84D-04
 ErrMax= 1.84D-04  0.00D+00 EMaxC= 1.00D-01 BMatC= 8.43D-06 BMatP= 1.06D-04
 IDIUse=3 WtCom= 9.98D-01 WtEn= 1.84D-03
 Coeff-Com: -0.229D-02-0.389D-02 0.399D-02 0.153D-01 0.198D+00 0.789D+00
 Coeff-En:   0.000D+00 0.000D+00 0.000D+00 0.000D+00 0.000D+00 0.100D+01
 Coeff:     -0.228D-02-0.388D-02 0.399D-02 0.152D-01 0.198D+00 0.789D+00
 Gap=     0.277 Goal=   None    Shift=    0.000
 RMSDP=2.44D-05 MaxDP=7.34D-04 DE=-8.22D-05 OVMax= 7.37D-04

 Cycle   7  Pass 1  IDiag  1:
 E= -657.278483679023     Delta-E=       -0.000009293245 Rises=F Damp=F
 DIIS: error= 5.62D-05 at cycle   7 NSaved=   7.
 NSaved= 7 IEnMin= 7 EnMin= -657.278483679023     IErMin= 7 ErrMin= 5.62D-05
 ErrMax= 5.62D-05  0.00D+00 EMaxC= 1.00D-01 BMatC= 5.46D-07 BMatP= 8.43D-06
 IDIUse=1 WtCom= 1.00D+00 WtEn= 0.00D+00
 Coeff-Com:  0.484D-03-0.897D-04-0.104D-01-0.314D-01-0.349D-01 0.108D+00
 Coeff-Com:  0.969D+00
 Coeff:      0.484D-03-0.897D-04-0.104D-01-0.314D-01-0.349D-01 0.108D+00
 Coeff:      0.969D+00
 Gap=     0.277 Goal=   None    Shift=    0.000
 RMSDP=1.27D-05 MaxDP=4.33D-04 DE=-9.29D-06 OVMax= 4.14D-04

 Cycle   8  Pass 1  IDiag  1:
 E= -657.278484561159     Delta-E=       -0.000000882136 Rises=F Damp=F
 DIIS: error= 1.42D-05 at cycle   8 NSaved=   8.
 NSaved= 8 IEnMin= 8 EnMin= -657.278484561159     IErMin= 8 ErrMin= 1.42D-05
 ErrMax= 1.42D-05  0.00D+00 EMaxC= 1.00D-01 BMatC= 5.67D-08 BMatP= 5.46D-07
 IDIUse=1 WtCom= 1.00D+00 WtEn= 0.00D+00
 Coeff-Com:  0.308D-03 0.183D-03-0.290D-02-0.981D-02-0.264D-01-0.335D-01
 Coeff-Com:  0.308D+00 0.765D+00
 Coeff:      0.308D-03 0.183D-03-0.290D-02-0.981D-02-0.264D-01-0.335D-01
 Coeff:      0.308D+00 0.765D+00
 Gap=     0.277 Goal=   None    Shift=    0.000
 RMSDP=2.52D-06 MaxDP=7.85D-05 DE=-8.82D-07 OVMax= 9.09D-05

 Cycle   9  Pass 1  IDiag  1:
 E= -657.278484632113     Delta-E=       -0.000000070955 Rises=F Damp=F
 DIIS: error= 4.04D-06 at cycle   9 NSaved=   9.
 NSaved= 9 IEnMin= 9 EnMin= -657.278484632113     IErMin= 9 ErrMin= 4.04D-06
 ErrMax= 4.04D-06  0.00D+00 EMaxC= 1.00D-01 BMatC= 2.39D-09 BMatP= 5.67D-08
 IDIUse=1 WtCom= 1.00D+00 WtEn= 0.00D+00
 Coeff-Com:  0.125D-04 0.214D-04 0.481D-03 0.107D-02-0.165D-02-0.148D-01
 Coeff-Com: -0.368D-01 0.984D-01 0.953D+00
 Coeff:      0.125D-04 0.214D-04 0.481D-03 0.107D-02-0.165D-02-0.148D-01
 Coeff:     -0.368D-01 0.984D-01 0.953D+00
 Gap=     0.277 Goal=   None    Shift=    0.000
 RMSDP=8.47D-07 MaxDP=2.53D-05 DE=-7.10D-08 OVMax= 2.81D-05

 Cycle  10  Pass 1  IDiag  1:
 E= -657.278484636106     Delta-E=       -0.000000003993 Rises=F Damp=F
 DIIS: error= 5.81D-07 at cycle  10 NSaved=  10.
 NSaved=10 IEnMin=10 EnMin= -657.278484636106     IErMin=10 ErrMin= 5.81D-07
 ErrMax= 5.81D-07  0.00D+00 EMaxC= 1.00D-01 BMatC= 1.18D-10 BMatP= 2.39D-09
 IDIUse=1 WtCom= 1.00D+00 WtEn= 0.00D+00
 Coeff-Com: -0.543D-05-0.607D-05 0.200D-03 0.534D-03 0.574D-03-0.118D-02
 Coeff-Com: -0.177D-01-0.151D-01 0.151D+00 0.882D+00
 Coeff:     -0.543D-05-0.607D-05 0.200D-03 0.534D-03 0.574D-03-0.118D-02
 Coeff:     -0.177D-01-0.151D-01 0.151D+00 0.882D+00
 Gap=     0.277 Goal=   None    Shift=    0.000
 RMSDP=1.28D-07 MaxDP=3.16D-06 DE=-3.99D-09 OVMax= 4.54D-06

 Cycle  11  Pass 1  IDiag  1:
 E= -657.278484636272     Delta-E=       -0.000000000166 Rises=F Damp=F
 DIIS: error= 2.37D-07 at cycle  11 NSaved=  11.
 NSaved=11 IEnMin=11 EnMin= -657.278484636272     IErMin=11 ErrMin= 2.37D-07
 ErrMax= 2.37D-07  0.00D+00 EMaxC= 1.00D-01 BMatC= 1.02D-11 BMatP= 1.18D-10
 IDIUse=1 WtCom= 1.00D+00 WtEn= 0.00D+00
 Coeff-Com: -0.182D-05-0.370D-05 0.243D-04 0.913D-04 0.207D-03 0.488D-03
 Coeff-Com: -0.248D-02-0.743D-02-0.227D-01 0.199D+00 0.832D+00
 Coeff:     -0.182D-05-0.370D-05 0.243D-04 0.913D-04 0.207D-03 0.488D-03
 Coeff:     -0.248D-02-0.743D-02-0.227D-01 0.199D+00 0.832D+00
 Gap=     0.277 Goal=   None    Shift=    0.000
 RMSDP=3.32D-08 MaxDP=9.07D-07 DE=-1.66D-10 OVMax= 1.26D-06

 Cycle  12  Pass 1  IDiag  1:
 E= -657.278484636280     Delta-E=       -0.000000000009 Rises=F Damp=F
 DIIS: error= 4.23D-08 at cycle  12 NSaved=  12.
 NSaved=12 IEnMin=12 EnMin= -657.278484636280     IErMin=12 ErrMin= 4.23D-08
 ErrMax= 4.23D-08  0.00D+00 EMaxC= 1.00D-01 BMatC= 4.18D-13 BMatP= 1.02D-11
 IDIUse=1 WtCom= 1.00D+00 WtEn= 0.00D+00
 Coeff-Com:  0.717D-06 0.314D-06-0.171D-04-0.423D-04-0.547D-04 0.142D-03
 Coeff-Com:  0.137D-02 0.119D-02-0.138D-01-0.509D-01-0.570D-03 0.106D+01
 Coeff:      0.717D-06 0.314D-06-0.171D-04-0.423D-04-0.547D-04 0.142D-03
 Coeff:      0.137D-02 0.119D-02-0.138D-01-0.509D-01-0.570D-03 0.106D+01
 Gap=     0.277 Goal=   None    Shift=    0.000
 RMSDP=1.23D-08 MaxDP=4.95D-07 DE=-8.53D-12 OVMax= 7.46D-07

 Cycle  13  Pass 1  IDiag  1:
 E= -657.278484636281     Delta-E=       -0.000000000001 Rises=F Damp=F
 DIIS: error= 2.42D-08 at cycle  13 NSaved=  13.
 NSaved=13 IEnMin=13 EnMin= -657.278484636281     IErMin=13 ErrMin= 2.42D-08
 ErrMax= 2.42D-08  0.00D+00 EMaxC= 1.00D-01 BMatC= 1.01D-13 BMatP= 4.18D-13
 IDIUse=1 WtCom= 1.00D+00 WtEn= 0.00D+00
 Coeff-Com:  0.340D-06 0.358D-06-0.779D-05-0.197D-04-0.322D-04 0.294D-04
 Coeff-Com:  0.604D-03 0.759D-03-0.358D-02-0.263D-01-0.467D-01 0.398D+00
 Coeff-Com:  0.677D+00
 Coeff:      0.340D-06 0.358D-06-0.779D-05-0.197D-04-0.322D-04 0.294D-04
 Coeff:      0.604D-03 0.759D-03-0.358D-02-0.263D-01-0.467D-01 0.398D+00
 Coeff:      0.677D+00
 Gap=     0.277 Goal=   None    Shift=    0.000
 RMSDP=2.91D-09 MaxDP=7.20D-08 DE=-9.09D-13 OVMax= 1.23D-07

 Error on total polarization charges =  0.03028
 SCF Done:  E(RM062X) =  -657.278484636     A.U. after   13 cycles
            NFock= 13  Conv=0.29D-08     -V/T= 2.3982
 KE= 4.700798654080D+02 PE=-2.451535701877D+03 EE= 8.337393715748D+02
 SMD-CDS (non-electrostatic) energy       (kcal/mol) =      -2.56
 (included in total energy above)
 Leave Link  502 at Tue Jun 11 17:26:43 2024, MaxMem=  8589934592 cpu:             151.5 elap:               5.6
 (Enter /opt/packages/gaussian/g16RevC.01/g16/l508.exe)
 QCSCF skips out because SCF is already converged.
 Leave Link  508 at Tue Jun 11 17:26:43 2024, MaxMem=  8589934592 cpu:               0.1 elap:               0.0
 (Enter /opt/packages/gaussian/g16RevC.01/g16/l601.exe)
 Copying SCF densities to generalized density rwf, IOpCl= 0 IROHF=0.

 **********************************************************************

            Population analysis using the SCF Density.

 **********************************************************************

 Alpha  occ. eigenvalues --  -19.62655 -19.62651 -14.82356 -10.67763 -10.67753
 Alpha  occ. eigenvalues --  -10.57045 -10.57025  -7.12964  -5.12737  -5.11043
 Alpha  occ. eigenvalues --   -5.11037  -2.09521  -2.08877  -2.08872  -2.07464
 Alpha  occ. eigenvalues --   -2.07462  -1.18316  -1.16624  -1.04751  -0.89415
 Alpha  occ. eigenvalues --   -0.79146  -0.77689  -0.69905  -0.61402  -0.57993
 Alpha  occ. eigenvalues --   -0.55877  -0.53848  -0.49535  -0.49354  -0.49138
 Alpha  occ. eigenvalues --   -0.48927  -0.45708  -0.40852  -0.37976  -0.36523
 Alpha  occ. eigenvalues --   -0.33506  -0.33049  -0.30958
 Alpha virt. eigenvalues --   -0.03231   0.02806   0.07144   0.10576   0.15543
 Alpha virt. eigenvalues --    0.15764   0.18652   0.20318   0.20443   0.21888
 Alpha virt. eigenvalues --    0.22114   0.22341   0.24550   0.25269   0.25547
 Alpha virt. eigenvalues --    0.27101   0.27867   0.33735   0.34397   0.39302
 Alpha virt. eigenvalues --    0.39610   0.44289   0.46785   0.49365   0.49387
 Alpha virt. eigenvalues --    0.55168   0.57730   0.59152   0.60899   0.62779
 Alpha virt. eigenvalues --    0.64592   0.69438   0.71706   0.72285   0.72315
 Alpha virt. eigenvalues --    0.72479   0.72983   0.76542   0.78797   0.80436
 Alpha virt. eigenvalues --    0.82069   0.84771   0.85676   0.90820   0.92151
 Alpha virt. eigenvalues --    0.92620   0.92651   0.92661   0.97644   1.00929
 Alpha virt. eigenvalues --    1.01846   1.03465   1.09987   1.10568   1.16345
 Alpha virt. eigenvalues --    1.16600   1.18647   1.20428   1.26150   1.26364
 Alpha virt. eigenvalues --    1.32405   1.36279   1.37642   1.38041   1.42015
 Alpha virt. eigenvalues --    1.42552   1.44197   1.45933   1.50436   1.53303
 Alpha virt. eigenvalues --    1.59863   1.61782   1.62617   1.64817   1.65297
 Alpha virt. eigenvalues --    1.70022   1.73434   1.76056   1.77715   1.78667
 Alpha virt. eigenvalues --    1.79011   1.84002   1.93858   1.95015   1.96314
 Alpha virt. eigenvalues --    2.01736   2.03813   2.04401   2.10604   2.24858
 Alpha virt. eigenvalues --    2.25576   2.31192   2.34247   2.38802   2.39283
 Alpha virt. eigenvalues --    2.40533   2.46762   2.56767   2.68630   2.69508
 Alpha virt. eigenvalues --    2.75503   2.75861   2.77140   2.77737   2.79106
 Alpha virt. eigenvalues --    2.84520   2.86661   2.88002   2.98789   3.02792
 Alpha virt. eigenvalues --    3.07332   3.12538   3.13813   3.13920   3.14106
 Alpha virt. eigenvalues --    3.17745   3.23145   3.24866   3.26622   3.42496
 Alpha virt. eigenvalues --    3.46223   3.57359   3.67269   3.71972   4.19430
 Alpha virt. eigenvalues --   34.45119  34.47168  34.56230  42.60147 117.50020
          Condensed to atoms (all electrons):
               1          2          3          4          5          6
     1  N    7.224563   0.250724  -0.126339  -0.126285   0.250597  -0.100770
     2  C    0.250724   4.549785   0.359294  -0.061280  -0.036022   0.000106
     3  C   -0.126339   0.359294   5.007183   0.242266  -0.061268   0.003911
     4  C   -0.126285  -0.061280   0.242266   5.006700   0.359477  -0.070803
     5  C    0.250597  -0.036022  -0.061268   0.359477   4.550120   0.742407
     6  O   -0.100770   0.000106   0.003911  -0.070803   0.742407   7.655322
     7  O   -0.100711   0.742602  -0.070930   0.003919   0.000101  -0.000017
     8  H    0.002463   0.007624   0.336889   0.003857  -0.000114  -0.000028
     9  H    0.003325   0.005406   0.339733   0.002802   0.000578  -0.000043
    10  H    0.002472  -0.000103   0.003832   0.336972   0.007544   0.002161
    11  H    0.003320   0.000561   0.002895   0.339618   0.005478   0.002432
    12  I    0.159629  -0.032227   0.010613   0.010595  -0.032465   0.015061
               7          8          9         10         11         12
     1  N   -0.100711   0.002463   0.003325   0.002472   0.003320   0.159629
     2  C    0.742602   0.007624   0.005406  -0.000103   0.000561  -0.032227
     3  C   -0.070930   0.336889   0.339733   0.003832   0.002895   0.010613
     4  C    0.003919   0.003857   0.002802   0.336972   0.339618   0.010595
     5  C    0.000101  -0.000114   0.000578   0.007544   0.005478  -0.032465
     6  O   -0.000017  -0.000028  -0.000043   0.002161   0.002432   0.015061
     7  O    7.655200   0.002163   0.002434  -0.000028  -0.000043   0.015018
     8  H    0.002163   0.561480  -0.007240   0.001915  -0.010671  -0.000303
     9  H    0.002434  -0.007240   0.563702  -0.010677   0.001437  -0.000285
    10  H   -0.000028   0.001915  -0.010677   0.561444  -0.007247  -0.000302
    11  H   -0.000043  -0.010671   0.001437  -0.007247   0.563634  -0.000286
    12  I    0.015018  -0.000303  -0.000285  -0.000302  -0.000286  24.645378
 Mulliken charges:
               1
     1  N   -0.442989
     2  C    0.213528
     3  C   -0.048080
     4  C   -0.047839
     5  C    0.213567
     6  O   -0.249738
     7  O   -0.249708
     8  H    0.101966
     9  H    0.098829
    10  H    0.102019
    11  H    0.098872
    12  I    0.209573
 Sum of Mulliken charges =   0.00000
 Mulliken charges with hydrogens summed into heavy atoms:
               1
     1  N   -0.442989
     2  C    0.213528
     3  C    0.152715
     4  C    0.153052
     5  C    0.213567
     6  O   -0.249738
     7  O   -0.249708
    12  I    0.209573
 Electronic spatial extent (au):  <R**2>=           3051.9184
 Charge=              0.0000 electrons
 Dipole moment (field-independent basis, Debye):
    X=              0.8015    Y=              0.4789    Z=              2.1444  Tot=              2.3389
 Quadrupole moment (field-independent basis, Debye-Ang):
   XX=            -77.7667   YY=            -69.4478   ZZ=            -53.6200
   XY=              9.0648   XZ=              1.3892   YZ=              2.3847
 Traceless Quadrupole moment (field-independent basis, Debye-Ang):
   XX=            -10.8219   YY=             -2.5030   ZZ=             13.3248
   XY=              9.0648   XZ=              1.3892   YZ=              2.3847
 Octapole moment (field-independent basis, Debye-Ang**2):
  XXX=            573.0876  YYY=           -130.2342  ZZZ=             80.1831  XYY=            190.0573
  XXY=            -92.9590  XXZ=             15.8186  XZZ=            126.5534  YZZ=            -38.4854
  YYZ=             38.9724  XYZ=             -4.4656
 Hexadecapole moment (field-independent basis, Debye-Ang**3):
 XXXX=          -3397.1793 YYYY=           -471.5492 ZZZZ=           -963.7559 XXXY=            634.8385
 XXXZ=           -300.8439 YYYX=            438.8358 YYYZ=            -52.6941 ZZZX=           -300.6505
 ZZZY=            -49.0328 XXYY=           -702.2060 XXZZ=           -547.9253 YYZZ=           -252.5704
 XXYZ=            -14.9619 YYXZ=           -135.7915 ZZXY=            124.4599
 N-N= 4.904379802580D+02 E-N=-2.451535702979D+03  KE= 4.700798654080D+02
 No NMR shielding tensors so no spin-rotation constants.
 Leave Link  601 at Tue Jun 11 17:26:43 2024, MaxMem=  8589934592 cpu:               3.0 elap:               0.1
 (Enter /opt/packages/gaussian/g16RevC.01/g16/l701.exe)
 ... and contract with generalized density number  0.
 Compute integral first derivatives.
 R6Disp: Adding Grimme-D3 dispersion energy 1st derivatives to the gradient.
   1 Symmetry operations used in ECPInt.
 ECPInt:  NShTT=    2485 NPrTT=    9318 LenC2=    2439 LenP2D=    7205.
 LDataN:  DoStor=T MaxTD1= 8 Len=  415
 D1PCM: PCM CHGder 1st derivatives, ID1Alg=3 FixD1E=F DoIter=F DoCFld=F I1PDM=0.
 GePol: Maximum number of non-zero 1st derivatives   =     355
 Leave Link  701 at Tue Jun 11 17:26:44 2024, MaxMem=  8589934592 cpu:              27.6 elap:               0.9
 (Enter /opt/packages/gaussian/g16RevC.01/g16/l702.exe)
 L702 exits ... SP integral derivatives will be done elsewhere.
 Leave Link  702 at Tue Jun 11 17:26:44 2024, MaxMem=  8589934592 cpu:               0.3 elap:               0.0
 (Enter /opt/packages/gaussian/g16RevC.01/g16/l703.exe)
 Integral derivatives from FoFJK, PRISM(SPDF).
 Compute integral first derivatives, UseDBF=F ICtDFT=           0.
 Calling FoFJK, ICntrl=      2127 FMM=F ISym2X=0 I1Cent= 0 IOpClX= 0 NMat=1 NMatS=1 NMatT=0.
 FoFJK:  IHMeth= 1 ICntrl=    2127 DoSepK=F KAlg= 0 I1Cent=           0 FoldK=F
 IRaf=         0 NMat=       1 IRICut=       1 DoRegI=T DoRafI=F ISym2E= 0 IDoP0=0 IntGTp=1.
 FoFCou: FMM=F IPFlag=           0 FMFlag=      100000 FMFlg1=         800
         NFxFlg=           0 DoJE=F BraDBF=F KetDBF=F FulRan=T
         wScrn=  0.000000 ICntrl=      2127 IOpCl=  0 I1Cent=           0 NGrid=           0
         NMat0=    1 NMatS0=      1 NMatT0=    0 NMatD0=    1 NMtDS0=    0 NMtDT0=    0
 Symmetry not used in FoFCou.
 Defaulting to unpruned grid for atomic number  53.
 Defaulting to unpruned grid for atomic number  53.
 Defaulting to unpruned grid for atomic number  53.
 Defaulting to unpruned grid for atomic number  53.
 Defaulting to unpruned grid for atomic number  53.
 Defaulting to unpruned grid for atomic number  53.
 Defaulting to unpruned grid for atomic number  53.
 Defaulting to unpruned grid for atomic number  53.
 Defaulting to unpruned grid for atomic number  53.
 Defaulting to unpruned grid for atomic number  53.
 Defaulting to unpruned grid for atomic number  53.
 Defaulting to unpruned grid for atomic number  53.
 Defaulting to unpruned grid for atomic number  53.
 Defaulting to unpruned grid for atomic number  53.
 Defaulting to unpruned grid for atomic number  53.
 Defaulting to unpruned grid for atomic number  53.
 Defaulting to unpruned grid for atomic number  53.
 Defaulting to unpruned grid for atomic number  53.
 Defaulting to unpruned grid for atomic number  53.
 Defaulting to unpruned grid for atomic number  53.
 Defaulting to unpruned grid for atomic number  53.
 Defaulting to unpruned grid for atomic number  53.
 Defaulting to unpruned grid for atomic number  53.
 Defaulting to unpruned grid for atomic number  53.
 Defaulting to unpruned grid for atomic number  53.
 Defaulting to unpruned grid for atomic number  53.
 Defaulting to unpruned grid for atomic number  53.
 Defaulting to unpruned grid for atomic number  53.
 Defaulting to unpruned grid for atomic number  53.
 Defaulting to unpruned grid for atomic number  53.
 Defaulting to unpruned grid for atomic number  53.
 Defaulting to unpruned grid for atomic number  53.
 Leave Link  703 at Tue Jun 11 17:26:45 2024, MaxMem=  8589934592 cpu:              27.5 elap:               0.9
 (Enter /opt/packages/gaussian/g16RevC.01/g16/l716.exe)
 Dipole        = 3.15327428D-01 1.88397753D-01 8.43680433D-01
 -------------------------------------------------------------------
 Center     Atomic                   Forces (Hartrees/Bohr)
 Number     Number              X              Y              Z
 -------------------------------------------------------------------
      1        7          -0.003200650   -0.002010418   -0.008640279
      2        6           0.000824555   -0.000731887   -0.000326893
      3        6          -0.000000699    0.000111813    0.000154230
      4        6           0.000118147   -0.000019933    0.000181566
      5        6          -0.000950850    0.000674154    0.000024646
      6        8           0.000261915   -0.000358372   -0.000391635
      7        8          -0.000485877    0.000183388   -0.000274089
      8        1          -0.000020780   -0.000005021    0.000003381
      9        1           0.000015604    0.000033568   -0.000002656
     10        1           0.000014589    0.000041334    0.000016290
     11        1          -0.000018990    0.000005703    0.000023503
     12       53           0.003443035    0.002075671    0.009231935
 -------------------------------------------------------------------
 Cartesian Forces:  Max     0.009231935 RMS     0.002320185
 Leave Link  716 at Tue Jun 11 17:26:46 2024, MaxMem=  8589934592 cpu:               0.5 elap:               0.0
 (Enter /opt/packages/gaussian/g16RevC.01/g16/l103.exe)

 GradGradGradGradGradGradGradGradGradGradGradGradGradGradGradGradGradGrad
 Berny optimization.
 FormGI is forming the generalized inverse of G from B-inverse, IUseBI=4.
 Internal  Forces:  Max     0.010069293 RMS     0.001291433
 Search for a local minimum.
 Step number   1 out of a maximum of   72
 All quantities printed in internal units (Hartrees-Bohrs-Radians)
 RMS Force = .12914D-02 SwitMx=.10000D-02 MixMth= 1
 Mixed Optimization -- RFO/linear search
 Second derivative matrix not updated -- first step.
 ITU=  0
     Eigenvalues ---    0.00482   0.00899   0.01016   0.01227   0.01748
     Eigenvalues ---    0.04050   0.04067   0.05304   0.05643   0.08531
     Eigenvalues ---    0.08710   0.08751   0.10918   0.16257   0.22674
     Eigenvalues ---    0.24794   0.24999   0.24999   0.25000   0.28934
     Eigenvalues ---    0.29512   0.30492   0.33820   0.33826   0.33890
     Eigenvalues ---    0.33891   0.43712   0.45300   1.05090   1.05101
 RFO step:  Lambda=-6.25488057D-04 EMin= 4.82491444D-03
 Linear search not attempted -- first point.
 Iteration  1 RMS(Cart)=  0.00764835 RMS(Int)=  0.00000240
 Iteration  2 RMS(Cart)=  0.00000286 RMS(Int)=  0.00000013
 Iteration  3 RMS(Cart)=  0.00000000 RMS(Int)=  0.00000013
 ITry= 1 IFail=0 DXMaxC= 5.31D-02 DCOld= 1.00D+10 DXMaxT= 3.00D-01 DXLimC= 3.00D+00 Rises=F
 Variable       Old X    -DE/DX   Delta X   Delta X   Delta X     New X
                                 (Linear)    (Quad)   (Total)
    R1        2.63748  -0.00069   0.00000  -0.00159  -0.00159   2.63589
    R2        2.63764  -0.00070   0.00000  -0.00162  -0.00162   2.63602
    R3        3.85614  -0.01007   0.00000  -0.06170  -0.06170   3.79444
    R4        2.86864   0.00017   0.00000   0.00062   0.00062   2.86926
    R5        2.26667   0.00056   0.00000   0.00053   0.00053   2.26720
    R6        2.88751   0.00002   0.00000   0.00025   0.00025   2.88776
    R7        2.07624  -0.00002   0.00000  -0.00005  -0.00005   2.07619
    R8        2.07516  -0.00002   0.00000  -0.00004  -0.00004   2.07512
    R9        2.86867   0.00020   0.00000   0.00069   0.00069   2.86936
   R10        2.07635  -0.00001   0.00000  -0.00004  -0.00004   2.07631
   R11        2.07515  -0.00002   0.00000  -0.00006  -0.00006   2.07509
   R12        2.26663   0.00058   0.00000   0.00055   0.00055   2.26718
    A1        1.99654   0.00013   0.00000   0.00021   0.00021   1.99675
    A2        2.14429  -0.00008   0.00000  -0.00017  -0.00017   2.14411
    A3        2.14234  -0.00005   0.00000  -0.00004  -0.00004   2.14230
    A4        1.87015   0.00014   0.00000   0.00044   0.00044   1.87060
    A5        2.17911  -0.00025   0.00000  -0.00094  -0.00094   2.17817
    A6        2.23392   0.00011   0.00000   0.00049   0.00049   2.23441
    A7        1.84357  -0.00020   0.00000  -0.00055  -0.00055   1.84303
    A8        1.88263   0.00007   0.00000   0.00029   0.00029   1.88292
    A9        1.89063   0.00008   0.00000   0.00019   0.00019   1.89083
   A10        1.97972   0.00005   0.00000   0.00016   0.00016   1.97987
   A11        1.98706   0.00004   0.00000   0.00004   0.00004   1.98710
   A12        1.87596  -0.00004   0.00000  -0.00012  -0.00012   1.87584
   A13        1.84336  -0.00020   0.00000  -0.00056  -0.00056   1.84280
   A14        1.97979   0.00005   0.00000   0.00012   0.00012   1.97990
   A15        1.98729   0.00004   0.00000   0.00005   0.00005   1.98733
   A16        1.88220   0.00007   0.00000   0.00027   0.00027   1.88247
   A17        1.89071   0.00008   0.00000   0.00022   0.00022   1.89093
   A18        1.87618  -0.00004   0.00000  -0.00008  -0.00008   1.87611
   A19        1.87026   0.00013   0.00000   0.00042   0.00042   1.87068
   A20        2.17881  -0.00024   0.00000  -0.00092  -0.00092   2.17789
   A21        2.23410   0.00011   0.00000   0.00050   0.00050   2.23460
    D1        0.01439   0.00000   0.00000  -0.00018  -0.00018   0.01421
    D2       -3.13200   0.00000   0.00000  -0.00024  -0.00024  -3.13225
    D3       -3.13284  -0.00001   0.00000  -0.00053  -0.00053  -3.13336
    D4        0.00395  -0.00001   0.00000  -0.00059  -0.00059   0.00336
    D5        0.01144   0.00001   0.00000   0.00063   0.00063   0.01207
    D6       -3.13529   0.00000   0.00000  -0.00001  -0.00001  -3.13530
    D7       -3.12453   0.00002   0.00000   0.00098   0.00098  -3.12355
    D8        0.01193   0.00001   0.00000   0.00034   0.00034   0.01227
    D9       -0.03356  -0.00001   0.00000  -0.00034  -0.00034  -0.03389
   D10        2.08876  -0.00002   0.00000  -0.00030  -0.00030   2.08846
   D11       -2.16881   0.00001   0.00000  -0.00018  -0.00018  -2.16899
   D12        3.11303   0.00000   0.00000  -0.00026  -0.00026   3.11277
   D13       -1.04783  -0.00001   0.00000  -0.00023  -0.00023  -1.04806
   D14        0.97778   0.00002   0.00000  -0.00011  -0.00011   0.97767
   D15        0.03935   0.00000   0.00000   0.00065   0.00065   0.04000
   D16       -2.01834   0.00001   0.00000   0.00061   0.00061  -2.01773
   D17        2.11162  -0.00001   0.00000   0.00058   0.00058   2.11219
   D18       -2.01897   0.00001   0.00000   0.00055   0.00055  -2.01841
   D19        2.20652   0.00002   0.00000   0.00051   0.00051   2.20704
   D20        0.05330   0.00000   0.00000   0.00048   0.00048   0.05378
   D21        2.11154  -0.00001   0.00000   0.00055   0.00055   2.11209
   D22        0.05384   0.00000   0.00000   0.00051   0.00051   0.05435
   D23       -2.09939  -0.00002   0.00000   0.00048   0.00048  -2.09891
   D24       -0.03190  -0.00001   0.00000  -0.00079  -0.00079  -0.03268
   D25        3.11505   0.00000   0.00000  -0.00012  -0.00012   3.11493
   D26        2.09016  -0.00003   0.00000  -0.00081  -0.00082   2.08934
   D27       -1.04608  -0.00002   0.00000  -0.00014  -0.00014  -1.04623
   D28       -2.16734   0.00001   0.00000  -0.00065  -0.00065  -2.16798
   D29        0.97961   0.00002   0.00000   0.00002   0.00003   0.97963
         Item               Value     Threshold  Converged?
 Maximum Force            0.010069     0.000450     NO 
 RMS     Force            0.001291     0.000300     NO 
 Maximum Displacement     0.053148     0.001800     NO 
 RMS     Displacement     0.007648     0.001200     NO 
 Predicted change in Energy=-3.139446D-04
 Lowest energy point so far.  Saving SCF results.
 GradGradGradGradGradGradGradGradGradGradGradGradGradGradGradGradGradGrad

 Leave Link  103 at Tue Jun 11 17:26:46 2024, MaxMem=  8589934592 cpu:               6.5 elap:               0.2
 (Enter /opt/packages/gaussian/g16RevC.01/g16/l202.exe)
                          Input orientation:                          
 ---------------------------------------------------------------------
 Center     Atomic      Atomic             Coordinates (Angstroms)
 Number     Number       Type             X           Y           Z
 ---------------------------------------------------------------------
      1          7           0       -2.447224    0.677868   -0.307413
      2          6           0       -3.108044    1.539673    0.567928
      3          6           0       -2.278909    1.611307    1.837881
      4          6           0       -1.102216    0.662274    1.614417
      5          6           0       -1.271381    0.127940    0.203247
      6          8           0       -0.555469   -0.629371   -0.391162
      7          8           0       -4.137354    2.105933    0.324460
      8          1           0       -1.975286    2.657030    1.984039
      9          1           0       -2.919635    1.332448    2.684960
     10          1           0       -1.096044   -0.195503    2.301003
     11          1           0       -0.120000    1.148223    1.684486
     12         53           0       -3.135326    0.254540   -2.145647
 ---------------------------------------------------------------------
                    Distance matrix (angstroms):
                    1          2          3          4          5
     1  N    0.000000
     2  C    1.394853   0.000000
     3  C    2.345618   1.518347   0.000000
     4  C    2.345788   2.426585   1.528138   0.000000
     5  C    1.394920   2.345062   2.426421   1.518397   0.000000
     6  O    2.301005   3.484286   3.599932   2.447371   1.199738
     7  O    2.301124   1.199752   2.447226   3.600028   3.484386
     8  H    3.064402   2.130022   1.098674   2.208601   3.172222
     9  H    3.099346   2.135477   1.098105   2.213189   3.213484
    10  H    3.064686   3.172149   2.208668   1.098736   2.129774
    11  H    3.099172   3.213774   2.213337   1.098091   2.135585
    12  I    2.007932   3.002632   4.294503   4.293933   3.001269
                    6          7          8          9         10
     6  O    0.000000
     7  O    4.563321   0.000000
     8  H    4.296264   2.780728   0.000000
     9  H    4.347475   2.766420   1.771328   0.000000
    10  H    2.779967   4.295683   3.001745   2.409884   0.000000
    11  H    2.767271   4.348104   2.410044   2.978731   1.771541
    12  I    3.242711   3.245480   4.916497   4.954106   4.912626
                   11         12
    11  H    0.000000
    12  I    4.955882   0.000000
 Symmetry turned off by external request.
 Stoichiometry    C4H4INO2
 Framework group  C1[X(C4H4INO2)]
 Deg. of freedom    30
 Full point group                 C1      NOp   1
 Rotational constants (GHZ):           2.2707823           0.9016714           0.6506787
 Leave Link  202 at Tue Jun 11 17:26:46 2024, MaxMem=  8589934592 cpu:               0.1 elap:               0.0
 (Enter /opt/packages/gaussian/g16RevC.01/g16/l301.exe)
 Basis read from rwf:  (5D, 7F)
 Pseudo-potential data read from rwf file.
   168 basis functions,   312 primitive gaussians,   184 cartesian basis functions
    38 alpha electrons       38 beta electrons
       nuclear repulsion energy       492.5786133448 Hartrees.
 IExCor= 4336 DFT=T Ex+Corr=M062X ExCW=0 ScaHFX=  0.540000
 ScaDFX=  1.000000  1.000000  1.000000  1.000000 ScalE2=  1.000000  1.000000
 IRadAn=      5 IRanWt=     -1 IRanGd=            0 ICorTp=0 IEmpDi=131
 NAtoms=   12 NActive=   12 NUniq=   12 SFac= 1.00D+00 NAtFMM=   60 NAOKFM=F Big=F
 Integral buffers will be    131072 words long.
 Raffenetti 2 integral format.
 Two-electron integral symmetry is turned off.
 R6Disp:  Grimme-D3 Dispersion energy=       -0.0001960920 Hartrees.
 Nuclear repulsion after empirical dispersion term =      492.5784172528 Hartrees.
 No density basis found on file    724.
 ------------------------------------------------------------------------------
 Polarizable Continuum Model (PCM)
 =================================
 Model                : PCM.
 Atomic radii         : SMD-Coulomb.
 Polarization charges : Total charges.
 Charge compensation  : None.
 Solution method      : On-the-fly selection.
 Cavity type          : VdW (van der Waals Surface) (Alpha=1.000).
 Cavity algorithm     : GePol (No added spheres)
                        Default sphere list used, NSphG=   12.
                        Lebedev-Laikov grids with approx.  5.0 points / Ang**2.
                        Smoothing algorithm: York/Karplus (Gamma=1.0000).
                        Polarization charges: spherical gaussians, with
                                              point-specific exponents (IZeta= 3).
                        Self-potential: point-specific (ISelfS= 7).
                        Self-field    : sphere-specific E.n sum rule (ISelfD= 2).
 1st derivatives      : Analytical E(r).r(x)/FMM algorithm (CHGder, D1EAlg=3).
                        Cavity 1st derivative terms included.
 Solvent              : PropylEthanoate, Eps=   5.520500 Eps(inf)=   1.916010
 ------------------------------------------------------------------------------
 Spheres list:
 ISph  on   Nord     Re0    Alpha      Xe            Ye            Ze
    1   N      1    1.8900  1.000     -2.447224      0.677868     -0.307413
    2   C      2    1.8500  1.000     -3.108044      1.539673      0.567928
    3   C      3    1.8500  1.000     -2.278909      1.611307      1.837881
    4   C      4    1.8500  1.000     -1.102216      0.662274      1.614417
    5   C      5    1.8500  1.000     -1.271381      0.127940      0.203247
    6   O      6    2.2940  1.000     -0.555469     -0.629371     -0.391162
    7   O      7    2.2940  1.000     -4.137354      2.105933      0.324460
    8   H      8    1.2000  1.000     -1.975286      2.657030      1.984039
    9   H      9    1.2000  1.000     -2.919635      1.332448      2.684960
   10   H     10    1.2000  1.000     -1.096044     -0.195503      2.301003
   11   H     11    1.2000  1.000     -0.120000      1.148223      1.684486
   12   I     12    1.9800  1.000     -3.135326      0.254540     -2.145647
 ------------------------------------------------------------------------------
 GePol: Number of generator spheres                  =      12
 GePol: Total number of spheres                      =      12
 GePol: Number of exposed spheres                    =      12 (100.00%)
 GePol: Number of points                             =    1307
 GePol: Average weight of points                     =       0.13
 GePol: Minimum weight of points                     =   0.17D-05
 GePol: Maximum weight of points                     =    0.17992
 GePol: Number of points with low weight             =      42
 GePol: Fraction of low-weight points (<1% of avg)   =       3.21%
 GePol: Cavity surface area                          =    172.620 Ang**2
 GePol: Cavity volume                                =    161.385 Ang**3
 ------------------------------------------------------------------------------
 Atomic radii for non-electrostatic terms: SMD-CDS.
 ------------------------------------------------------------------------------
 PCM non-electrostatic energy =        -0.0040924934 Hartrees.
 Nuclear repulsion after PCM non-electrostatic terms =      492.5743247594 Hartrees.
 Leave Link  301 at Tue Jun 11 17:26:46 2024, MaxMem=  8589934592 cpu:               1.4 elap:               0.1
 (Enter /opt/packages/gaussian/g16RevC.01/g16/l302.exe)
 NPDir=0 NMtPBC=     1 NCelOv=     1 NCel=       1 NClECP=     1 NCelD=      1
         NCelK=      1 NCelE2=     1 NClLst=     1 CellRange=     0.0.
 One-electron integrals computed using PRISM.
   1 Symmetry operations used in ECPInt.
 ECPInt:  NShTT=    2485 NPrTT=    9318 LenC2=    2441 LenP2D=    7209.
 LDataN:  DoStor=T MaxTD1= 7 Len=  274
 NBasis=   168 RedAO= T EigKep=  6.69D-04  NBF=   168
 NBsUse=   168 1.00D-06 EigRej= -1.00D+00 NBFU=   168
 Precomputing XC quadrature grid using
 IXCGrd= 4 IRadAn=           5 IRanWt=          -1 IRanGd=           0 AccXCQ= 0.00D+00.
 Defaulting to unpruned grid for atomic number  53.
 Generated NRdTot=       0 NPtTot=           0 NUsed=           0 NTot=          32
 NSgBfM=   184   184   184   184   184 MxSgAt=    12 MxSgA2=    12.
 Leave Link  302 at Tue Jun 11 17:26:46 2024, MaxMem=  8589934592 cpu:               5.8 elap:               0.2
 (Enter /opt/packages/gaussian/g16RevC.01/g16/l303.exe)
 DipDrv:  MaxL=1.
 Leave Link  303 at Tue Jun 11 17:26:46 2024, MaxMem=  8589934592 cpu:               0.4 elap:               0.0
 (Enter /opt/packages/gaussian/g16RevC.01/g16/l401.exe)
 Initial guess from the checkpoint file:  "/local/Gau-54006.chk"
 B after Tr=     0.009106    0.006032    0.023680
         Rot=    1.000000    0.000067   -0.000093   -0.000071 Ang=   0.02 deg.
 Guess basis will be translated and rotated to current coordinates.
 JPrj=2 DoOrth=T DoCkMO=T.
 Generating alternative initial guess.
 ExpMin= 7.49D-02 ExpMax= 5.90D+03 ExpMxC= 3.41D+02 IAcc=3 IRadAn=         5 AccDes= 0.00D+00
 Harris functional with IExCor= 1009 and IRadAn=       5 diagonalized for initial guess.
 HarFok:  IExCor= 1009 AccDes= 0.00D+00 IRadAn=         5 IDoV= 1 UseB2=F ITyADJ=14
 ICtDFT=  3500011 ScaDFX=  1.000000  1.000000  1.000000  1.000000
 Defaulting to unpruned grid for atomic number  53.
 FoFCou: FMM=F IPFlag=           0 FMFlag=      100000 FMFlg1=           0
         NFxFlg=           0 DoJE=T BraDBF=F KetDBF=T FulRan=T
         wScrn=  0.000000 ICntrl=       500 IOpCl=  0 I1Cent=   200000004 NGrid=           0
         NMat0=    1 NMatS0=      1 NMatT0=    0 NMatD0=    1 NMtDS0=    0 NMtDT0=    0
 Symmetry not used in FoFCou.
 Harris En= -657.413113742277    
 Leave Link  401 at Tue Jun 11 17:26:46 2024, MaxMem=  8589934592 cpu:               7.6 elap:               0.3
 (Enter /opt/packages/gaussian/g16RevC.01/g16/l502.exe)
 Keep R1 ints in memory in canonical form, NReq=133235122.
 FoFCou: FMM=F IPFlag=           0 FMFlag=           0 FMFlg1=           0
         NFxFlg=           0 DoJE=F BraDBF=F KetDBF=F FulRan=T
         wScrn=  0.000000 ICntrl=       600 IOpCl=  0 I1Cent=           0 NGrid=           0
         NMat0=    1 NMatS0=  14196 NMatT0=    0 NMatD0=    1 NMtDS0=    0 NMtDT0=    0
 Symmetry not used in FoFCou.
 Two-electron integral symmetry not used.
 Closed shell SCF:
 Using DIIS extrapolation, IDIIS=  1040.
 NGot=  8589934592 LenX=  8489088952 LenY=  8489054655
 Requested convergence on RMS density matrix=1.00D-08 within 128 cycles.
 Requested convergence on MAX density matrix=1.00D-06.
 Requested convergence on             energy=1.00D-06.
 No special actions if energy rises.

 Cycle   1  Pass 1  IDiag  1:
 Defaulting to unpruned grid for atomic number  53.
 Defaulting to unpruned grid for atomic number  53.
 Defaulting to unpruned grid for atomic number  53.
 Defaulting to unpruned grid for atomic number  53.
 Defaulting to unpruned grid for atomic number  53.
 Defaulting to unpruned grid for atomic number  53.
 Defaulting to unpruned grid for atomic number  53.
 Defaulting to unpruned grid for atomic number  53.
 Defaulting to unpruned grid for atomic number  53.
 Defaulting to unpruned grid for atomic number  53.
 Defaulting to unpruned grid for atomic number  53.
 Defaulting to unpruned grid for atomic number  53.
 Defaulting to unpruned grid for atomic number  53.
 Defaulting to unpruned grid for atomic number  53.
 Defaulting to unpruned grid for atomic number  53.
 Defaulting to unpruned grid for atomic number  53.
 Defaulting to unpruned grid for atomic number  53.
 Defaulting to unpruned grid for atomic number  53.
 Defaulting to unpruned grid for atomic number  53.
 Defaulting to unpruned grid for atomic number  53.
 Defaulting to unpruned grid for atomic number  53.
 Defaulting to unpruned grid for atomic number  53.
 Defaulting to unpruned grid for atomic number  53.
 Defaulting to unpruned grid for atomic number  53.
 Defaulting to unpruned grid for atomic number  53.
 Defaulting to unpruned grid for atomic number  53.
 Defaulting to unpruned grid for atomic number  53.
 Defaulting to unpruned grid for atomic number  53.
 Defaulting to unpruned grid for atomic number  53.
 Defaulting to unpruned grid for atomic number  53.
 Defaulting to unpruned grid for atomic number  53.
 Defaulting to unpruned grid for atomic number  53.
 Inv3:  Mode=1 IEnd=     5124747.
 Iteration    1 A*A^-1 deviation from unit magnitude is 2.89D-15 for     17.
 Iteration    1 A*A^-1 deviation from orthogonality  is 1.56D-15 for    832    249.
 Iteration    1 A^-1*A deviation from unit magnitude is 2.89D-15 for     17.
 Iteration    1 A^-1*A deviation from orthogonality  is 1.28D-15 for    346     78.
 E= -657.278526265256    
 DIIS: error= 4.63D-03 at cycle   1 NSaved=   1.
 NSaved= 1 IEnMin= 1 EnMin= -657.278526265256     IErMin= 1 ErrMin= 4.63D-03
 ErrMax= 4.63D-03  0.00D+00 EMaxC= 1.00D-01 BMatC= 8.33D-04 BMatP= 8.33D-04
 IDIUse=3 WtCom= 9.54D-01 WtEn= 4.63D-02
 Coeff-Com:  0.100D+01
 Coeff-En:   0.100D+01
 Coeff:      0.100D+01
 Gap=     0.720 Goal=   None    Shift=    0.000
 GapD=    0.720 DampG=2.000 DampE=1.000 DampFc=2.0000 IDamp=-1.
 RMSDP=1.34D-04 MaxDP=3.38D-03              OVMax= 4.28D-03

 Cycle   2  Pass 1  IDiag  1:
 E= -657.278677145576     Delta-E=       -0.000150880320 Rises=F Damp=F
 DIIS: error= 5.33D-04 at cycle   2 NSaved=   2.
 NSaved= 2 IEnMin= 2 EnMin= -657.278677145576     IErMin= 2 ErrMin= 5.33D-04
 ErrMax= 5.33D-04  0.00D+00 EMaxC= 1.00D-01 BMatC= 5.94D-05 BMatP= 8.33D-04
 IDIUse=3 WtCom= 9.95D-01 WtEn= 5.33D-03
 Coeff-Com:  0.934D-01 0.907D+00
 Coeff-En:   0.000D+00 0.100D+01
 Coeff:      0.929D-01 0.907D+00
 Gap=     0.283 Goal=   None    Shift=    0.000
 RMSDP=7.94D-05 MaxDP=3.55D-03 DE=-1.51D-04 OVMax= 3.37D-03

 Cycle   3  Pass 1  IDiag  1:
 E= -657.278652093961     Delta-E=        0.000025051615 Rises=F Damp=F
 DIIS: error= 6.42D-04 at cycle   3 NSaved=   3.
 NSaved= 3 IEnMin= 2 EnMin= -657.278677145576     IErMin= 2 ErrMin= 5.33D-04
 ErrMax= 6.42D-04  0.00D+00 EMaxC= 1.00D-01 BMatC= 9.48D-05 BMatP= 5.94D-05
 IDIUse=3 WtCom= 2.83D-01 WtEn= 7.17D-01
 Coeff-Com: -0.555D-02 0.561D+00 0.444D+00
 Coeff-En:   0.000D+00 0.591D+00 0.409D+00
 Coeff:     -0.157D-02 0.583D+00 0.419D+00
 Gap=     0.283 Goal=   None    Shift=    0.000
 RMSDP=4.13D-05 MaxDP=1.73D-03 DE= 2.51D-05 OVMax= 1.95D-03

 Cycle   4  Pass 1  IDiag  1:
 E= -657.278724839847     Delta-E=       -0.000072745886 Rises=F Damp=F
 DIIS: error= 5.84D-05 at cycle   4 NSaved=   4.
 NSaved= 4 IEnMin= 4 EnMin= -657.278724839847     IErMin= 4 ErrMin= 5.84D-05
 ErrMax= 5.84D-05  0.00D+00 EMaxC= 1.00D-01 BMatC= 1.04D-06 BMatP= 5.94D-05
 IDIUse=1 WtCom= 1.00D+00 WtEn= 0.00D+00
 Coeff-Com: -0.496D-02 0.233D+00 0.165D+00 0.607D+00
 Coeff:     -0.496D-02 0.233D+00 0.165D+00 0.607D+00
 Gap=     0.283 Goal=   None    Shift=    0.000
 RMSDP=7.19D-06 MaxDP=2.48D-04 DE=-7.27D-05 OVMax= 1.89D-04

 Cycle   5  Pass 1  IDiag  1:
 E= -657.278725497153     Delta-E=       -0.000000657306 Rises=F Damp=F
 DIIS: error= 2.88D-05 at cycle   5 NSaved=   5.
 NSaved= 5 IEnMin= 5 EnMin= -657.278725497153     IErMin= 5 ErrMin= 2.88D-05
 ErrMax= 2.88D-05  0.00D+00 EMaxC= 1.00D-01 BMatC= 1.53D-07 BMatP= 1.04D-06
 IDIUse=1 WtCom= 1.00D+00 WtEn= 0.00D+00
 Coeff-Com: -0.788D-03-0.248D-01-0.300D-01 0.263D+00 0.792D+00
 Coeff:     -0.788D-03-0.248D-01-0.300D-01 0.263D+00 0.792D+00
 Gap=     0.283 Goal=   None    Shift=    0.000
 RMSDP=2.74D-06 MaxDP=5.63D-05 DE=-6.57D-07 OVMax= 9.58D-05

 Cycle   6  Pass 1  IDiag  1:
 E= -657.278725630232     Delta-E=       -0.000000133079 Rises=F Damp=F
 DIIS: error= 3.76D-06 at cycle   6 NSaved=   6.
 NSaved= 6 IEnMin= 6 EnMin= -657.278725630232     IErMin= 6 ErrMin= 3.76D-06
 ErrMax= 3.76D-06  0.00D+00 EMaxC= 1.00D-01 BMatC= 4.67D-09 BMatP= 1.53D-07
 IDIUse=1 WtCom= 1.00D+00 WtEn= 0.00D+00
 Coeff-Com:  0.541D-04-0.190D-01-0.173D-01 0.296D-01 0.212D+00 0.794D+00
 Coeff:      0.541D-04-0.190D-01-0.173D-01 0.296D-01 0.212D+00 0.794D+00
 Gap=     0.283 Goal=   None    Shift=    0.000
 RMSDP=6.99D-07 MaxDP=2.34D-05 DE=-1.33D-07 OVMax= 2.09D-05

 Cycle   7  Pass 1  IDiag  1:
 E= -657.278725634850     Delta-E=       -0.000000004618 Rises=F Damp=F
 DIIS: error= 1.56D-06 at cycle   7 NSaved=   7.
 NSaved= 7 IEnMin= 7 EnMin= -657.278725634850     IErMin= 7 ErrMin= 1.56D-06
 ErrMax= 1.56D-06  0.00D+00 EMaxC= 1.00D-01 BMatC= 4.77D-10 BMatP= 4.67D-09
 IDIUse=1 WtCom= 1.00D+00 WtEn= 0.00D+00
 Coeff-Com:  0.757D-04-0.473D-02-0.377D-02-0.118D-01 0.157D-01 0.263D+00
 Coeff-Com:  0.741D+00
 Coeff:      0.757D-04-0.473D-02-0.377D-02-0.118D-01 0.157D-01 0.263D+00
 Coeff:      0.741D+00
 Gap=     0.283 Goal=   None    Shift=    0.000
 RMSDP=1.37D-07 MaxDP=3.71D-06 DE=-4.62D-09 OVMax= 4.83D-06

 Cycle   8  Pass 1  IDiag  1:
 E= -657.278725635206     Delta-E=       -0.000000000356 Rises=F Damp=F
 DIIS: error= 3.41D-07 at cycle   8 NSaved=   8.
 NSaved= 8 IEnMin= 8 EnMin= -657.278725635206     IErMin= 8 ErrMin= 3.41D-07
 ErrMax= 3.41D-07  0.00D+00 EMaxC= 1.00D-01 BMatC= 2.29D-11 BMatP= 4.77D-10
 IDIUse=1 WtCom= 1.00D+00 WtEn= 0.00D+00
 Coeff-Com: -0.554D-05 0.224D-02 0.177D-02-0.527D-02-0.220D-01-0.660D-01
 Coeff-Com: -0.265D-01 0.112D+01
 Coeff:     -0.554D-05 0.224D-02 0.177D-02-0.527D-02-0.220D-01-0.660D-01
 Coeff:     -0.265D-01 0.112D+01
 Gap=     0.283 Goal=   None    Shift=    0.000
 RMSDP=7.84D-08 MaxDP=2.08D-06 DE=-3.56D-10 OVMax= 2.73D-06

 Cycle   9  Pass 1  IDiag  1:
 E= -657.278725635249     Delta-E=       -0.000000000043 Rises=F Damp=F
 DIIS: error= 4.20D-08 at cycle   9 NSaved=   9.
 NSaved= 9 IEnMin= 9 EnMin= -657.278725635249     IErMin= 9 ErrMin= 4.20D-08
 ErrMax= 4.20D-08  0.00D+00 EMaxC= 1.00D-01 BMatC= 6.06D-13 BMatP= 2.29D-11
 IDIUse=1 WtCom= 1.00D+00 WtEn= 0.00D+00
 Coeff-Com: -0.240D-05 0.288D-03 0.218D-03 0.147D-04-0.164D-02-0.144D-01
 Coeff-Com: -0.245D-01 0.798D-01 0.960D+00
 Coeff:     -0.240D-05 0.288D-03 0.218D-03 0.147D-04-0.164D-02-0.144D-01
 Coeff:     -0.245D-01 0.798D-01 0.960D+00
 Gap=     0.283 Goal=   None    Shift=    0.000
 RMSDP=1.31D-08 MaxDP=3.18D-07 DE=-4.30D-11 OVMax= 7.04D-07

 Cycle  10  Pass 1  IDiag  1:
 E= -657.278725635251     Delta-E=       -0.000000000001 Rises=F Damp=F
 DIIS: error= 1.75D-08 at cycle  10 NSaved=  10.
 NSaved=10 IEnMin=10 EnMin= -657.278725635251     IErMin=10 ErrMin= 1.75D-08
 ErrMax= 1.75D-08  0.00D+00 EMaxC= 1.00D-01 BMatC= 9.44D-14 BMatP= 6.06D-13
 IDIUse=1 WtCom= 1.00D+00 WtEn= 0.00D+00
 Coeff-Com:  0.249D-07-0.117D-03-0.864D-04 0.392D-03 0.141D-02 0.195D-02
 Coeff-Com: -0.336D-03-0.772D-01 0.174D+00 0.900D+00
 Coeff:      0.249D-07-0.117D-03-0.864D-04 0.392D-03 0.141D-02 0.195D-02
 Coeff:     -0.336D-03-0.772D-01 0.174D+00 0.900D+00
 Gap=     0.283 Goal=   None    Shift=    0.000
 RMSDP=5.12D-09 MaxDP=1.66D-07 DE=-1.48D-12 OVMax= 3.03D-07

 Error on total polarization charges =  0.03021
 SCF Done:  E(RM062X) =  -657.278725635     A.U. after   10 cycles
            NFock= 10  Conv=0.51D-08     -V/T= 2.3981
 KE= 4.701209122246D+02 PE=-2.455816768233D+03 EE= 8.358428056134D+02
 SMD-CDS (non-electrostatic) energy       (kcal/mol) =      -2.57
 (included in total energy above)
 Leave Link  502 at Tue Jun 11 17:26:51 2024, MaxMem=  8589934592 cpu:             122.1 elap:               4.5
 (Enter /opt/packages/gaussian/g16RevC.01/g16/l508.exe)
 QCSCF skips out because SCF is already converged.
 Leave Link  508 at Tue Jun 11 17:26:51 2024, MaxMem=  8589934592 cpu:               0.0 elap:               0.0
 (Enter /opt/packages/gaussian/g16RevC.01/g16/l701.exe)
 ... and contract with generalized density number  0.
 Compute integral first derivatives.
 R6Disp: Adding Grimme-D3 dispersion energy 1st derivatives to the gradient.
   1 Symmetry operations used in ECPInt.
 ECPInt:  NShTT=    2485 NPrTT=    9318 LenC2=    2441 LenP2D=    7209.
 LDataN:  DoStor=T MaxTD1= 8 Len=  415
 D1PCM: PCM CHGder 1st derivatives, ID1Alg=3 FixD1E=F DoIter=F DoCFld=F I1PDM=0.
 GePol: Maximum number of non-zero 1st derivatives   =     354
 Leave Link  701 at Tue Jun 11 17:26:52 2024, MaxMem=  8589934592 cpu:              24.5 elap:               0.8
 (Enter /opt/packages/gaussian/g16RevC.01/g16/l702.exe)
 L702 exits ... SP integral derivatives will be done elsewhere.
 Leave Link  702 at Tue Jun 11 17:26:52 2024, MaxMem=  8589934592 cpu:               0.2 elap:               0.0
 (Enter /opt/packages/gaussian/g16RevC.01/g16/l703.exe)
 Integral derivatives from FoFJK, PRISM(SPDF).
 Compute integral first derivatives, UseDBF=F ICtDFT=           0.
 Calling FoFJK, ICntrl=      2127 FMM=F ISym2X=0 I1Cent= 0 IOpClX= 0 NMat=1 NMatS=1 NMatT=0.
 FoFJK:  IHMeth= 1 ICntrl=    2127 DoSepK=F KAlg= 0 I1Cent=           0 FoldK=F
 IRaf=         0 NMat=       1 IRICut=       1 DoRegI=T DoRafI=F ISym2E= 0 IDoP0=0 IntGTp=1.
 FoFCou: FMM=F IPFlag=           0 FMFlag=      100000 FMFlg1=         800
         NFxFlg=           0 DoJE=F BraDBF=F KetDBF=F FulRan=T
         wScrn=  0.000000 ICntrl=      2127 IOpCl=  0 I1Cent=           0 NGrid=           0
         NMat0=    1 NMatS0=      1 NMatT0=    0 NMatD0=    1 NMtDS0=    0 NMtDT0=    0
 Symmetry not used in FoFCou.
 Defaulting to unpruned grid for atomic number  53.
 Defaulting to unpruned grid for atomic number  53.
 Defaulting to unpruned grid for atomic number  53.
 Defaulting to unpruned grid for atomic number  53.
 Defaulting to unpruned grid for atomic number  53.
 Defaulting to unpruned grid for atomic number  53.
 Defaulting to unpruned grid for atomic number  53.
 Defaulting to unpruned grid for atomic number  53.
 Defaulting to unpruned grid for atomic number  53.
 Defaulting to unpruned grid for atomic number  53.
 Defaulting to unpruned grid for atomic number  53.
 Defaulting to unpruned grid for atomic number  53.
 Defaulting to unpruned grid for atomic number  53.
 Defaulting to unpruned grid for atomic number  53.
 Defaulting to unpruned grid for atomic number  53.
 Defaulting to unpruned grid for atomic number  53.
 Defaulting to unpruned grid for atomic number  53.
 Defaulting to unpruned grid for atomic number  53.
 Defaulting to unpruned grid for atomic number  53.
 Defaulting to unpruned grid for atomic number  53.
 Defaulting to unpruned grid for atomic number  53.
[...]
                           ! (Angstroms and Degrees)  !
 --------------------------                            --------------------------
 ! Name  Definition              Value          Derivative Info.                !
 --------------------------------------------------------------------------------
 ! R1    R(1,2)                  1.396          -DE/DX =    0.0002              !
 ! R2    R(1,5)                  1.3961         -DE/DX =    0.0002              !
 ! R3    R(1,12)                 2.0136         -DE/DX =    0.0                 !
 ! R4    R(2,3)                  1.5177         -DE/DX =   -0.0002              !
 ! R5    R(2,7)                  1.1998         -DE/DX =    0.0002              !
 ! R6    R(3,4)                  1.5278         -DE/DX =    0.0001              !
 ! R7    R(3,8)                  1.0987         -DE/DX =    0.0                 !
 ! R8    R(3,9)                  1.0981         -DE/DX =    0.0                 !
 ! R9    R(4,5)                  1.5178         -DE/DX =   -0.0002              !
 ! R10   R(4,10)                 1.0988         -DE/DX =    0.0                 !
 ! R11   R(4,11)                 1.098          -DE/DX =    0.0                 !
 ! R12   R(5,6)                  1.1998         -DE/DX =    0.0001              !
 ! A1    A(2,1,5)              114.1765         -DE/DX =    0.0                 !
 ! A2    A(2,1,12)             122.9475         -DE/DX =    0.0                 !
 ! A3    A(5,1,12)             122.8752         -DE/DX =    0.0                 !
 ! A4    A(1,2,3)              107.2985         -DE/DX =    0.0                 !
 ! A5    A(1,2,7)              124.699          -DE/DX =    0.0001              !
 ! A6    A(3,2,7)              128.0017         -DE/DX =    0.0                 !
 ! A7    A(2,3,4)              105.5859         -DE/DX =    0.0001              !
 ! A8    A(2,3,8)              107.8607         -DE/DX =    0.0                 !
 ! A9    A(2,3,9)              108.368          -DE/DX =    0.0                 !
 ! A10   A(4,3,8)              113.4162         -DE/DX =    0.0                 !
 ! A11   A(4,3,9)              113.8826         -DE/DX =    0.0                 !
 ! A12   A(8,3,9)              107.4728         -DE/DX =    0.0                 !
 ! A13   A(3,4,5)              105.5741         -DE/DX =    0.0001              !
 ! A14   A(3,4,10)             113.4153         -DE/DX =    0.0                 !
 ! A15   A(3,4,11)             113.8962         -DE/DX =    0.0                 !
 ! A16   A(5,4,10)             107.8302         -DE/DX =    0.0                 !
 ! A17   A(5,4,11)             108.3802         -DE/DX =    0.0                 !
 ! A18   A(10,4,11)            107.4875         -DE/DX =    0.0                 !
 ! A19   A(1,5,4)              107.3011         -DE/DX =    0.0                 !
 ! A20   A(1,5,6)              124.687          -DE/DX =    0.0001              !
 ! A21   A(4,5,6)              128.0109         -DE/DX =    0.0                 !
 ! D1    D(5,1,2,3)              0.8685         -DE/DX =    0.0                 !
 ! D2    D(5,1,2,7)           -179.4443         -DE/DX =    0.0                 !
 ! D3    D(12,1,2,3)          -179.4525         -DE/DX =    0.0                 !
 ! D4    D(12,1,2,7)             0.2347         -DE/DX =    0.0                 !
 ! D5    D(2,1,5,4)              0.7938         -DE/DX =    0.0                 !
 ! D6    D(2,1,5,6)           -179.5453         -DE/DX =    0.0                 !
 ! D7    D(12,1,5,4)          -178.8854         -DE/DX =    0.0                 !
 ! D8    D(12,1,5,6)             0.7755         -DE/DX =    0.0                 !
 ! D9    D(1,2,3,4)             -2.1269         -DE/DX =    0.0                 !
 ! D10   D(1,2,3,8)            119.4306         -DE/DX =    0.0                 !
 ! D11   D(1,2,3,9)           -124.5048         -DE/DX =    0.0                 !
 ! D12   D(7,2,3,4)            178.1995         -DE/DX =    0.0                 !
 ! D13   D(7,2,3,8)            -60.2431         -DE/DX =    0.0                 !
 ! D14   D(7,2,3,9)             55.8215         -DE/DX =    0.0                 !
 ! D15   D(2,3,4,5)              2.5279         -DE/DX =    0.0                 !
 ! D16   D(2,3,4,10)          -115.3179         -DE/DX =    0.0                 !
 ! D17   D(2,3,4,11)           121.3125         -DE/DX =    0.0                 !
 ! D18   D(8,3,4,5)           -115.363          -DE/DX =    0.0                 !
 ! D19   D(8,3,4,10)           126.7911         -DE/DX =    0.0                 !
 ! D20   D(8,3,4,11)             3.4215         -DE/DX =    0.0                 !
 ! D21   D(9,3,4,5)            121.2976         -DE/DX =    0.0                 !
 ! D22   D(9,3,4,10)             3.4518         -DE/DX =    0.0                 !
 ! D23   D(9,3,4,11)          -119.9178         -DE/DX =    0.0                 !
 ! D24   D(3,4,5,1)             -2.0845         -DE/DX =    0.0                 !
 ! D25   D(3,4,5,6)            178.2694         -DE/DX =    0.0                 !
 ! D26   D(10,4,5,1)           119.4494         -DE/DX =    0.0                 !
 ! D27   D(10,4,5,6)           -60.1967         -DE/DX =    0.0                 !
 ! D28   D(11,4,5,1)          -124.4784         -DE/DX =    0.0                 !
 ! D29   D(11,4,5,6)            55.8755         -DE/DX =    0.0                 !
 --------------------------------------------------------------------------------
 GradGradGradGradGradGradGradGradGradGradGradGradGradGradGradGradGradGrad

 Leave Link  103 at Tue Jun 11 17:27:32 2024, MaxMem=  8589934592 cpu:               6.9 elap:               0.2
 (Enter /opt/packages/gaussian/g16RevC.01/g16/l9999.exe)

 ----------------------------------------------------------------------

 Electric dipole moment (input orientation):
 (Debye = 10**-18 statcoulomb cm , SI units = C m)
                  (au)            (Debye)         (10**-30 SI)
   Tot        0.954182D+00      0.242529D+01      0.808989D+01
   x          0.325913D+00      0.828388D+00      0.276320D+01
   y          0.194477D+00      0.494311D+00      0.164884D+01
   z          0.875456D+00      0.222519D+01      0.742243D+01

 Dipole polarizability, Alpha (input orientation).
 (esu units = cm**3 , SI units = C**2 m**2 J**-1)
 Alpha(0;0):
               (au)            (10**-24 esu)      (10**-40 SI)
   iso        0.985193D+02      0.145991D+02      0.162436D+02
   aniso      0.557318D+02      0.825860D+01      0.918894D+01
   xx         0.939049D+02      0.139153D+02      0.154828D+02
   yx        -0.109353D+02     -0.162044D+01     -0.180298D+01
   yy         0.808003D+02      0.119734D+02      0.133222D+02
   zx         0.161850D+02      0.239837D+01      0.266854D+01
   zy         0.153881D+02      0.228028D+01      0.253715D+01
   zz         0.120853D+03      0.179085D+02      0.199259D+02

 ----------------------------------------------------------------------

 Dipole orientation:
     7         -4.19146758          1.53910964         -1.85470403
     6         -5.98724786          2.83993148         -0.42671350
     6         -5.34095199          2.42730916          2.33782090
     6         -3.04407409          0.67821582          2.34442559
     6         -2.39749012          0.24601034         -0.41720180
     8         -0.69020180         -0.97274984         -1.27733206
     8         -7.69543616          4.05150582         -1.29523293
     1         -4.96776969          4.28355293          3.18967535
     1         -7.00567415          1.62993966          3.28597406
     1         -3.41785759         -1.17246984          3.20830900
     1         -1.37953636          1.48192191          3.28747814
    53         -4.19753725          1.51203947         -5.65986093

 Electric dipole moment (dipole orientation):
 (Debye = 10**-18 statcoulomb cm , SI units = C m)
                  (au)            (Debye)         (10**-30 SI)
   Tot        0.954182D+00      0.242529D+01      0.808989D+01
   x          0.000000D+00      0.000000D+00      0.000000D+00
   y          0.000000D+00      0.000000D+00      0.000000D+00
   z          0.954182D+00      0.242529D+01      0.808989D+01

 Dipole polarizability, Alpha (dipole orientation).
 (esu units = cm**3 , SI units = C**2 m**2 J**-1)
 Alpha(0;0):
               (au)            (10**-24 esu)      (10**-40 SI)
   iso        0.985193D+02      0.145991D+02      0.162436D+02
   aniso      0.557318D+02      0.825860D+01      0.918894D+01
   xx         0.877752D+02      0.130069D+02      0.144722D+02
   yx        -0.156460D+02     -0.231850D+01     -0.257968D+01
   yy         0.773610D+02      0.114637D+02      0.127551D+02
   zx         0.168539D+00      0.249750D-01      0.277884D-01
   zy         0.282016D+00      0.417904D-01      0.464981D-01
   zz         0.130422D+03      0.193265D+02      0.215036D+02

 ----------------------------------------------------------------------
 Unable to Open any file for archive entry.
 1\1\GINC-R196\Freq\RM062X\GenECP\C4H4I1N1O2\BIM2\11-Jun-2024\0\\#P Geo
 m=AllCheck Guess=TCheck SCRF=Check GenChk RM062X/GenECP Freq\\Title Ca
 rd Required\\0,1\N,-2.4478807168,0.6773059053,-0.3088940272\C,-3.10723
 54024,1.5392741936,0.5687017837\C,-2.2784299264,1.61140487,1.838616373
 5\C,-1.1021282228,0.6624609196,1.6153165943\C,-1.2716409227,0.12842646
 41,0.204247594\O,-0.5552025301,-0.628111052,-0.3904986476\O,-4.1364313
 887,2.1056662356,0.325097482\H,-1.974657584,2.6571132413,1.9845501443\
 H,-2.9190698295,1.3328415563,2.6858540455\H,-1.0961915294,-0.195308427
 7,2.3019113449\H,-0.119871811,1.1482832637,1.6856407176\I,-3.138148136
 ,0.2530048302,-2.1523444049\\Version=ES64L-G16RevC.01\HF=-657.2787471\
 RMSD=1.993e-09\RMSF=1.032e-04\ZeroPoint=0.0817822\Thermal=0.0892008\ET
 ot=-657.1895464\HTot=-657.1886022\GTot=-657.2314113\Dipole=0.3259129,0
 .194477,0.8754561\DipoleDeriv=-1.4895544,0.8021003,-0.0014216,0.803877
 3,-0.980313,-0.3049789,-0.0016816,-0.3059567,-0.9412611,1.4447421,-0.9
 884704,-0.5503109,-0.7637864,1.2588274,0.831027,-0.0914286,0.5212067,1
 .2814679,-0.0396388,-0.0115575,-0.1034356,-0.0695615,-0.0030212,-0.146
 6802,-0.2081586,-0.0663514,-0.3787583,-0.0293077,-0.0539281,-0.2011321
 ,0.0001515,0.0086225,-0.0372236,-0.0941305,-0.1224309,-0.3976803,1.994
 5836,-0.820741,0.5927153,-1.0425085,0.98679,-0.1108293,0.1349592,0.201
 8678,1.002374,-1.1008945,0.4439729,-0.0111432,0.5936919,-0.880117,-0.1
 384493,0.307197,-0.3504111,-0.7404103,-1.2491908,0.6079846,0.1197148,0
 .4544887,-0.8140041,-0.1954422,-0.2009741,0.0209787,-0.6545923,0.07009
 49,-0.0098988,-0.041362,0.0168778,-0.0108757,-0.0104924,-0.0127744,-0.
 0024244,0.0847692,0.0157252,0.0074558,0.0299692,0.0012471,0.1028246,0.
 0376156,0.0380914,-0.0022565,0.0253304,0.0958577,0.0195868,0.020291,0.
 0311464,0.0047182,0.0207658,-0.0159357,0.0247712,0.0406019,-0.0114039,
 -0.0055297,0.0080534,-0.035933,0.0801367,-0.0390633,0.0082175,-0.01374
 13,0.0728408,0.2989867,0.0090251,0.1380616,0.0103087,0.2464117,0.09375
 09,0.1366184,0.0947476,0.6053181\Polar=93.9049148,-10.9352516,80.80031
 01,16.1849773,15.3880962,120.8527199\Quadrupole=-8.0552785,-1.7360515,
 9.79133,6.6997375,0.8125462,1.7703776\PG=C01 [X(C4H4I1N1O2)]\NImag=0\\
 0.43684532,-0.21141823,0.26530320,0.09633123,0.14753527,0.49894959,-0.
 10005341,0.03165754,0.00819381,0.87719194,0.03440305,-0.11354533,-0.06
 810737,-0.34541610,0.45886313,0.01359216,-0.07154302,-0.18884632,0.186
 37390,0.01490327,0.50744201,0.00905402,0.00565672,0.00075621,-0.108263
 18,-0.01028027,-0.05010630,0.50512844,0.00167811,0.00320231,-0.0254297
 7,-0.00417852,-0.08605065,-0.00294656,0.02774876,0.58051191,-0.0084879
 8,-0.02001689,-0.03507743,-0.03734513,-0.01169901,-0.16138342,-0.06933
 432,0.01827541,0.54245618,-0.00919263,0.00351023,-0.03157395,-0.025397
 42,0.01159184,-0.00525003,-0.15917298,0.06071070,0.01213222,0.58478817
 ,0.00753751,0.01256468,0.00115080,0.00490369,-0.00382292,0.00854203,0.
 06455242,-0.13332680,-0.00801616,0.02380559,0.54524296,-0.02214750,-0.
 00455280,-0.02518847,-0.01679721,0.01701100,0.00466105,0.02027249,-0.0
 1328326,-0.08146338,0.02929412,-0.06257663,0.49550850,-0.16506219,0.03
 968671,-0.06699166,-0.04607297,0.04660675,0.04151587,-0.00231761,0.008
 34486,0.02394130,-0.08645197,-0.01122555,-0.02329451,0.62275494,0.0371
 5989,-0.08331677,0.00007825,0.02993941,-0.03062995,-0.00979600,0.00345
 281,-0.01576752,-0.01838525,-0.00485067,-0.09439378,-0.02456698,-0.328
 38409,0.57415727,-0.07262588,0.00377782,-0.15447775,0.00676365,0.01385
 268,0.03234317,0.01197768,-0.00938418,-0.00731292,-0.01023093,-0.03349
 333,-0.17336745,-0.12951794,0.28416045,0.64734532,-0.07008868,0.070603
 80,0.02243317,0.00877524,-0.01260568,-0.02255253,0.00097614,0.00148041
 ,-0.00075171,0.01230216,0.00706046,0.00935346,-0.32927073,0.26938739,0
 .21545667,0.38640370,0.06556685,-0.02940733,-0.01029996,-0.00419442,0.
 01481583,0.01243599,0.00030859,0.00116754,-0.00435269,0.01398793,-0.00
 261894,-0.02205794,0.26250157,-0.36695012,-0.24608286,-0.34550514,0.39
 306969,0.01144859,-0.00307864,0.02917569,-0.00518765,0.00074285,0.0002
 6961,-0.00329974,-0.00245020,-0.00748728,0.02451811,-0.03242722,-0.017
 76961,0.20098817,-0.23600356,-0.29478689,-0.23535273,0.27420929,0.2851
 0541,-0.06274301,0.06489290,0.02099209,-0.61672828,0.28373229,-0.15606
 604,-0.02321860,0.01685061,-0.01939955,-0.00115923,0.00012626,-0.00588
 044,0.02179311,-0.00538153,0.01107318,-0.01001953,0.00617525,0.0010608
 6,0.69612799,0.07011626,-0.03297950,-0.01154718,0.29094654,-0.23411070
 ,0.07382179,0.00932870,0.01343796,0.00559998,0.00144879,0.00183681,-0.
 00089138,-0.01347812,0.00871807,-0.01356125,0.00787413,-0.00663341,0.0
 0051466,-0.36821961,0.25047717,0.03191352,-0.01876846,0.02472154,-0.14
 146444,0.06361857,-0.13921916,-0.03448051,0.01563901,0.00147451,-0.003
 38035,-0.00269256,-0.00598045,-0.00634551,-0.00180054,-0.00673954,0.00
 467444,-0.00189704,0.00099593,0.14929023,-0.05846013,0.11738424,0.0005
 6843,0.00015413,-0.00178749,-0.00613758,-0.01750131,0.00158756,-0.0682
 0164,-0.08064370,-0.01189913,0.00769349,0.02427732,0.00391905,-0.00279
 637,0.00253419,-0.00212757,-0.00016368,-0.00000642,0.00191830,0.001038
 58,0.00255369,-0.00102318,0.07261214,-0.00142895,0.00055541,0.00008246
 ,0.00094350,0.00048540,-0.00184231,-0.07758673,-0.30048441,-0.03381150
 ,-0.00434681,-0.01151954,-0.00152495,0.00173255,-0.00130356,0.00186505
 ,-0.00009180,-0.00015616,-0.00104027,0.00061987,-0.00007061,0.00033154
 ,0.08131052,0.31808783,-0.00009894,0.00135593,-0.00348884,-0.00957856,
 -0.02881551,-0.00373800,-0.01146406,-0.03505871,-0.04528735,-0.0008995
 1,-0.00098392,-0.00091458,-0.00011775,-0.00065207,-0.00088674,0.000295
 99,-0.00009188,-0.00011846,0.00246555,0.00239247,0.00062821,0.01258192
 ,0.03857848,0.04858340,-0.00054002,-0.00243420,-0.00129017,0.01293815,
 0.00867106,-0.01446382,-0.14000243,-0.04278955,0.12713669,-0.01089312,
 -0.00586225,0.01576377,-0.00396195,0.00042770,-0.00222847,0.00058482,0
 .00082364,0.00149241,-0.00098175,-0.00143128,0.00135606,-0.00470106,-0
 .00171636,0.00709485,0.14764750,-0.00101359,-0.00004626,-0.00030064,0.
 00058455,-0.00096573,-0.00479847,-0.04403099,-0.06257754,0.06205540,0.
 01030190,0.00486891,-0.01602535,0.00350260,-0.00107135,0.00023736,-0.0
 0042909,-0.00102658,-0.00117285,0.00113520,0.00018187,0.00068678,-0.01
 478817,-0.00606800,0.02298121,0.04373403,0.06609498,-0.00265521,-0.001
 46853,-0.00208737,0.01675738,0.00821317,-0.02121790,0.12897425,0.06077
 489,-0.21359282,-0.00207524,-0.00051086,0.00172767,-0.00025817,-0.0000
 1893,-0.00044621,0.00026066,0.00004199,0.00002748,-0.00095506,-0.00228
 591,0.00298413,-0.00356864,-0.00165268,0.00499686,-0.13556557,-0.06264
 319,0.22702295,0.00010617,-0.00114325,-0.00068514,-0.00127844,0.003132
 89,0.00140823,0.00012318,0.01660163,-0.01496501,-0.04222468,-0.0019196
 6,0.00424003,-0.00212519,0.00253590,-0.00504389,0.00000227,0.00091739,
 0.00120184,-0.00131385,-0.00052351,-0.00099785,-0.00165030,0.00130094,
 -0.00057964,0.00157762,-0.00005702,-0.00022164,0.04592876,-0.00204937,
 -0.00046513,-0.00026742,0.00025165,-0.00235760,-0.00236517,-0.00071557
 ,-0.01113155,0.00919460,-0.00079580,-0.21648290,0.13875798,0.00244142,
 0.01210775,-0.00824597,-0.00039540,-0.00119655,0.00049509,0.00062725,0
 .00036756,0.00095339,0.00227199,-0.00093642,0.00036275,-0.00075416,0.0
 0146493,-0.00001240,-0.00127099,0.22833861,-0.00179918,-0.00250609,-0.
 00207218,0.00020409,-0.00122084,-0.00133478,0.00018531,-0.00845655,0.0
 0638393,0.00287211,0.14164498,-0.15671412,0.00196223,0.02558135,-0.019
 43894,-0.00151841,-0.00279862,0.00296153,0.00041048,0.00039219,0.00050
 017,0.00114484,-0.00119669,0.00015748,-0.00032733,-0.00011114,0.000679
 75,-0.00250219,-0.14767436,0.16630441,0.00095072,-0.00120156,-0.000786
 43,-0.00174744,0.00148639,0.00293221,-0.01413863,-0.00830889,-0.001864
 43,-0.26957219,-0.11554452,-0.01419800,-0.00244233,0.00048129,-0.00218
 130,0.00010672,0.00072960,0.00079124,-0.00066530,0.00015973,-0.0013935
 8,0.00158566,-0.00065731,-0.00010838,-0.00157000,0.00109679,-0.0006307
 2,0.00106371,0.00077758,-0.00003205,0.28644171,-0.00041763,0.00048986,
 -0.00090544,0.00266889,-0.00177715,-0.00252559,0.01924749,0.01004385,0
 .00254723,-0.11795686,-0.10362208,-0.01005677,-0.00879171,-0.00581764,
 0.00288627,0.00155947,0.00113284,-0.00094303,0.00054933,-0.00042082,0.
 00166556,-0.00020639,0.00147126,-0.00021259,0.00185665,-0.00065507,0.0
 0009491,-0.01948016,-0.00950945,-0.00340713,0.12100744,0.10859332,0.00
 008427,0.00106812,-0.00415314,0.00001192,-0.00067190,-0.00198003,0.006
 12629,0.00328878,-0.00012865,-0.01527408,-0.00999583,-0.04235705,-0.02
 944038,-0.01654074,-0.00085507,0.00232465,0.00310750,0.00060836,0.0000
 4326,0.00010566,0.00064331,-0.00050033,0.00013629,0.00069113,0.0011848
 0,-0.00085654,0.00006424,0.01817224,0.00883344,0.00269883,0.01743047,0
 .01092464,0.04529477,-0.03984474,0.00003520,-0.04559169,0.00677339,-0.
 00382091,0.00102880,0.00003328,0.00250557,0.00083706,-0.00071960,0.002
 28874,-0.00052527,-0.00404674,-0.00730229,-0.02131520,0.00039157,-0.00
 130484,0.00042058,-0.00213013,0.00122468,0.00185117,0.00015232,-0.0000
 7944,0.00040854,-0.00009777,-0.00003620,-0.00006204,-0.00020925,-0.000
 38859,-0.00059989,-0.00001264,-0.00003652,-0.00016312,0.03971032,-0.00
 013391,-0.02235513,-0.03198899,-0.00810672,-0.00090432,-0.01388596,0.0
 0231806,0.00097490,-0.00139112,0.00259316,0.00127359,-0.00023292,-0.00
 293699,0.00426761,0.00398796,0.00106146,-0.00219682,0.00115389,-0.0011
 0781,-0.00080441,0.00072388,0.00004415,-0.00006122,0.00014382,-0.00052
 528,-0.00020017,-0.00053246,-0.00009417,-0.00019926,-0.00024711,-0.000
 02653,0.00007108,0.00060057,0.00691459,0.02013414,-0.04555507,-0.03180
 271,-0.13745530,-0.00793176,-0.00782692,-0.02699622,0.00039269,-0.0009
 6885,0.00141863,-0.00013246,-0.00064129,0.00185789,-0.01244166,-0.0020
 5599,-0.02137699,0.00537634,-0.00221379,0.00101824,-0.00303457,0.00391
 910,0.00260711,-0.00024532,0.00007457,-0.00062313,-0.00015323,-0.00005
 258,-0.00015878,-0.00002699,-0.00003192,-0.00012606,0.00004097,-0.0000
 6806,-0.00052671,0.06371107,0.04166844,0.18036131\\0.00007591,0.000103
 17,0.00020071,-0.00008698,-0.00011360,-0.00027504,0.00013175,0.0000022
 4,0.00013241,-0.00000448,0.00006261,0.00014885,-0.00018421,-0.00009210
 ,-0.00026414,-0.00011610,0.00011745,0.00000043,0.00014090,-0.00006818,
 -0.00000744,0.00002879,-0.00001232,0.00003663,0.00001832,-0.00002613,0
 .00002233,-0.00000329,-0.00001013,0.00000384,0.00000245,0.00000646,0.0
 0002132,-0.00000306,0.00003052,-0.00001989\\\@
 The archive entry for this job was punched.


 THERE'S SMALL CHOICE IN A BOWL OF ROTTEN APPLES.
                     SHAKESPEARE
 Job cpu time:       0 days  0 hours 16 minutes 26.6 seconds.
 Elapsed time:       0 days  0 hours  0 minutes 31.7 seconds.
 File lengths (MBytes):  RWF=     79 Int=      0 D2E=      0 Chk=      8 Scr=      1
 Normal termination of Gaussian 16 at Tue Jun 11 17:27:32 2024.
