 Entering Gaussian System, Link 0=g16
 Initial command:
 /opt/packages/gaussian/g16RevC.01/g16/l1.exe "/local/Gau-101397.inp" -scrdir="/local/"
 Entering Link 1 = /opt/packages/gaussian/g16RevC.01/g16/l1.exe PID=    101398.
  
 Copyright (c) 1988-2019, Gaussian, Inc.  All Rights Reserved.
  
 This is part of the Gaussian(R) 16 program.  It is based on
 the Gaussian(R) 09 system (copyright 2009, Gaussian, Inc.),
 the Gaussian(R) 03 system (copyright 2003, Gaussian, Inc.),
 the Gaussian(R) 98 system (copyright 1998, Gaussian, Inc.),
 the Gaussian(R) 94 system (copyright 1995, Gaussian, Inc.),
 the Gaussian 92(TM) system (copyright 1992, Gaussian, Inc.),
 the Gaussian 90(TM) system (copyright 1990, Gaussian, Inc.),
 the Gaussian 88(TM) system (copyright 1988, Gaussian, Inc.),
 the Gaussian 86(TM) system (copyright 1986, Carnegie Mellon
 University), and the Gaussian 82(TM) system (copyright 1983,
 Carnegie Mellon University). Gaussian is a federally registered
 trademark of Gaussian, Inc.
  
 This software contains proprietary and confidential information,
 including trade secrets, belonging to Gaussian, Inc.
  
 This software is provided under written license and may be
 used, copied, transmitted, or stored only in accord with that
 written license.
  
 The following legend is applicable only to US Government
 contracts under FAR:
  
                    RESTRICTED RIGHTS LEGEND
  
 Use, reproduction and disclosure by the US Government is
 subject to restrictions as set forth in subparagraphs (a)
 and (c) of the Commercial Computer Software - Restricted
 Rights clause in FAR 52.227-19.
  
 Gaussian, Inc.
 340 Quinnipiac St., Bldg. 40, Wallingford CT 06492
  
  
 ---------------------------------------------------------------
 Warning -- This program may not be used in any manner that
 competes with the business of Gaussian, Inc. or will provide
 assistance to any competitor of Gaussian, Inc.  The licensee
 of this program is prohibited from giving any competitor of
 Gaussian, Inc. access to this program.  By using this program,
 the user acknowledges that Gaussian, Inc. is engaged in the
 business of creating and licensing software in the field of
 computational chemistry and represents and warrants to the
 licensee that it is not a competitor of Gaussian, Inc. and that
 it will not use this program in any manner prohibited above.
 ---------------------------------------------------------------
  

 Cite this work as:
 Gaussian 16, Revision C.01,
 M. J. Frisch, G. W. Trucks, H. B. Schlegel, G. E. Scuseria, 
 M. A. Robb, J. R. Cheeseman, G. Scalmani, V. Barone, 
 G. A. Petersson, H. Nakatsuji, X. Li, M. Caricato, A. V. Marenich, 
 J. Bloino, B. G. Janesko, R. Gomperts, B. Mennucci, H. P. Hratchian, 
 J. V. Ortiz, A. F. Izmaylov, J. L. Sonnenberg, D. Williams-Young, 
 F. Ding, F. Lipparini, F. Egidi, J. Goings, B. Peng, A. Petrone, 
 T. Henderson, D. Ranasinghe, V. G. Zakrzewski, J. Gao, N. Rega, 
 G. Zheng, W. Liang, M. Hada, M. Ehara, K. Toyota, R. Fukuda, 
 J. Hasegawa, M. Ishida, T. Nakajima, Y. Honda, O. Kitao, H. Nakai, 
 T. Vreven, K. Throssell, J. A. Montgomery, Jr., J. E. Peralta, 
 F. Ogliaro, M. J. Bearpark, J. J. Heyd, E. N. Brothers, K. N. Kudin, 
 V. N. Staroverov, T. A. Keith, R. Kobayashi, J. Normand, 
 K. Raghavachari, A. P. Rendell, J. C. Burant, S. S. Iyengar, 
 J. Tomasi, M. Cossi, J. M. Millam, M. Klene, C. Adamo, R. Cammi, 
 J. W. Ochterski, R. L. Martin, K. Morokuma, O. Farkas, 
 J. B. Foresman, and D. J. Fox, Gaussian, Inc., Wallingford CT, 2019.
 
 ******************************************
 Gaussian 16:  ES64L-G16RevC.01  3-Jul-2019
                11-Jun-2024 
 ******************************************
 %nprocshared=32
 Will use up to   32 processors via shared memory.
 %mem=62GB
 ----------------------------------------------------------------------
 #p m062x genecp freq nosymm scrf=(smd,solvent=propylethanoate) empiric
 aldispersion=gd3 scf=(xqc,maxcycles=128)
 ----------------------------------------------------------------------
 1/10=4,30=1,38=1/1,3;
 2/12=2,15=1,17=6,18=5,40=1/2;
 3/5=7,11=2,16=1,17=8,25=1,30=1,70=32201,71=2,72=169,74=-55,124=31,140=1/1,2,3;
 4//1;
 5/5=2,7=128,8=3,13=1,38=5,53=169,98=1/2,8;
 8/6=4,10=90,11=11/1;
 11/6=1,8=1,9=11,15=111,16=1,31=1/1,2,10;
 10/6=1,31=1/2;
 6/7=2,8=2,9=2,10=2,28=1/1;
 7/8=1,10=1,25=1,30=1/1,2,3,16;
 1/10=4,30=1/3;
 99//99;
 Leave Link    1 at Tue Jun 11 17:54:38 2024, MaxMem=  8321499136 cpu:               1.1 elap:               0.0
 (Enter /opt/packages/gaussian/g16RevC.01/g16/l101.exe)
 -------------------
 Title Card Required
 -------------------
 Symbolic Z-matrix:
 Charge =  0 Multiplicity = 1
 C                    -0.65918  -2.81345  -0.43365 
 C                     0.4607   -2.14156  -1.09423 
 C                     1.77629  -2.45881  -0.52821 
 C                     1.84408  -3.00534   0.71969 
 C                     0.63028  -3.20872   1.44924 
 N                    -0.55874  -3.24566   0.78828 
 H                     2.81824  -3.15038   1.17906 
 C                    -2.00483  -3.01403  -1.05424 
 C                    -3.20358  -2.55598  -0.45793 
 C                    -4.4241   -2.86021  -1.07544 
 C                    -3.31539  -4.15909  -2.78003 
 C                    -4.48151  -3.63512  -2.23136 
 H                    -5.34443  -2.46688  -0.63822 
 H                    -5.44534  -3.85029  -2.69561 
 H                    -3.31666  -4.8145   -3.6512 
 C                    -2.11084  -3.85104  -2.16788 
 C                    -3.22896  -1.82743   0.84111 
 C                    -4.07216  -2.28919   1.86181 
 C                    -2.42563  -0.70777   1.08324 
 C                    -4.09845  -1.65181   3.10225 
 H                    -4.69526  -3.16925   1.68735 
 C                    -2.45442  -0.06595   2.32004 
 H                    -1.78893  -0.32855   0.2839 
 C                    -3.28967  -0.53935   3.33427 
 H                    -4.75505  -2.02741   3.88944 
 H                    -1.80988   0.7997    2.4836 
 H                    -3.31081  -0.0381    4.30375 
 F                    -1.00169  -4.44416  -2.62489 
 C                     3.02234  -2.01535  -1.21893 
 H                     2.95558  -0.93426  -1.4259 
 H                     3.90276  -2.20278  -0.59282 
 H                     3.14319  -2.52466  -2.18633 
 C                     1.74625  -3.36517   3.64984 
 C                    -0.68167  -3.43237   3.50983 
 C                     1.6627   -4.55123   4.6037 
 H                     1.73747  -2.42255   4.22129 
 H                     2.67581  -3.4176    3.07735 
 C                    -0.65347  -4.61551   4.46419 
 H                    -0.77711  -2.49507   4.08286 
 H                    -1.51679  -3.50302   2.80621 
 H                     2.48628  -4.49735   5.32784 
 H                     1.76436  -5.48904   4.02427 
 H                    -1.55742  -4.60736   5.08698 
 H                    -0.63428  -5.55758   3.88357 
 N                     0.58175  -3.37209   2.769 
 O                     0.45856  -4.54922   5.32441 
 I                     0.40936  -1.74585  -3.18312 
 H                     0.389    -0.91319  -0.67221 
 C                     1.96441   6.81985  -1.57494 
 C                     1.33621   5.7744   -0.94112 
 C                     2.06922   4.62025  -0.54674 
 C                     3.45947   4.56234  -0.84891 
 C                     4.08455   5.66338  -1.49754 
 C                     3.35373   6.7705   -1.84926 
 H                     1.38618   7.69508  -1.87488 
 H                     0.26453   5.82541  -0.74796 
 C                     1.45459   3.5048    0.11267 
 C                     4.19703   3.40126  -0.51883 
 H                     5.1525    5.60284  -1.71534 
 H                     3.83656   7.61105  -2.34999 
 C                     3.59843   2.30962   0.08064 
 C                     2.20231   2.37663   0.39783 
 H                     5.26157   3.36049  -0.75564 
 C                    -0.0091    3.58417   0.43539 
 C                    -0.93861   2.77736  -0.19631 
 C                    -0.43031   4.48702   1.46649 
 C                    -2.33316   2.85772   0.12377 
 C                    -1.81575   4.57043   1.78568 
 C                     0.48652   5.28061   2.21198 
 C                    -2.74049   3.75365   1.0953 
 C                    -2.2503    5.46191   2.80618 
 C                     0.03939   6.12689   3.19828 
 H                     1.55459   5.20902   2.00598 
 H                    -3.80173   3.82161   1.34129 
 C                    -1.34292   6.22696   3.49484 
 H                    -3.31711   5.51673   3.03113 
 H                     0.7568    6.72456   3.76264 
 H                    -1.68032   6.90707   4.27845 
 S                     1.30841   0.95085   0.99628 
 O                     0.4683    1.40184   2.06214 
 O                     2.20205  -0.12005   1.2949 
 S                    -0.31027   1.52135  -1.29985 
 O                     0.59559   2.16025  -2.19898 
 O                    -1.39065   0.77977  -1.86349 
 N                     0.45852   0.50056  -0.29938 
 C                     4.42297   1.16879   0.35725 
 C                     5.1665    0.23263   0.56086 
 C                    -3.35463   2.06646  -0.49626 
 C                    -4.28623   1.43112  -0.94223 
 C                    -5.32896   0.61648  -1.4883 
 C                    -6.49788   0.32781  -0.75492 
 C                    -5.18307   0.07132  -2.77268 
 C                    -7.48854  -0.48596  -1.29591 
 C                    -6.18151  -0.73506  -3.312 
 H                    -4.27244   0.28508  -3.3332 
 C                    -7.33232  -1.01721  -2.57708 
 H                    -8.38586  -0.70212  -0.71577 
 H                    -6.05392  -1.15191  -4.31236 
 H                    -8.11395  -1.65071  -2.99868 
 C                     5.93742  -0.9431    0.838 
 C                     5.77096  -1.59927   2.06771 
 C                     6.82869  -1.48962  -0.10689 
 C                     6.4779   -2.76659   2.34568 
 H                     5.07812  -1.17782   2.79712 
 C                     7.53186  -2.65653   0.17658 
 C                     7.35839  -3.2966    1.40381 
 H                     6.34047  -3.26423   3.30707 
 H                     8.21593  -3.06749  -0.56597 
 H                     7.91291  -4.21027   1.62092 
 C                    -6.66262   0.90514   0.62717 
 F                    -5.68909   0.51512   1.45308 
 F                    -7.81978   0.53872   1.18419 
 F                    -6.64387   2.24377   0.61422 
 C                     6.98981  -0.81689  -1.44587 
 F                     5.84509  -0.81274  -2.13839 
 F                     7.90159  -1.42921  -2.20325 
 F                     7.37225   0.45752  -1.32388 
 
 ITRead=  0  0  0  0  0  0  0  0  0  0  0  0  0  0  0  0  0  0  0  0
 ITRead=  0  0  0  0  0  0  0  0  0  0  0  0  0  0  0  0  0  0  0  0
 ITRead=  0  0  0  0  0  0  0  0  0  0  0  0  0  0  0  0  0  0  0  0
 ITRead=  0  0  0  0  0  0  0  0  0  0  0  0  0  0  0  0  0  0  0  0
 ITRead=  0  0  0  0  0  0  0  0  0  0  0  0  0  0  0  0  0  0  0  0
 ITRead=  0  0  0  0  0  0  0  0  0  0  0  0  0  0  0  0  0
 MicOpt= -1 -1 -1 -1 -1 -1 -1 -1 -1 -1 -1 -1 -1 -1 -1 -1 -1 -1 -1 -1
 MicOpt= -1 -1 -1 -1 -1 -1 -1 -1 -1 -1 -1 -1 -1 -1 -1 -1 -1 -1 -1 -1
 MicOpt= -1 -1 -1 -1 -1 -1 -1 -1 -1 -1 -1 -1 -1 -1 -1 -1 -1 -1 -1 -1
 MicOpt= -1 -1 -1 -1 -1 -1 -1 -1 -1 -1 -1 -1 -1 -1 -1 -1 -1 -1 -1 -1
 MicOpt= -1 -1 -1 -1 -1 -1 -1 -1 -1 -1 -1 -1 -1 -1 -1 -1 -1 -1 -1 -1
 MicOpt= -1 -1 -1 -1 -1 -1 -1 -1 -1 -1 -1 -1 -1 -1 -1 -1 -1
 NAtoms=    117 NQM=      117 NQMF=       0 NMMI=      0 NMMIF=      0
                NMic=       0 NMicF=      0.
                    Isotopes and Nuclear Properties:
 (Nuclear quadrupole moments (NQMom) in fm**2, nuclear magnetic moments (NMagM)
  in nuclear magnetons)

  Atom         1           2           3           4           5           6           7           8           9          10
 IAtWgt=          12          12          12          12          12          14           1          12          12          12
 AtmWgt=  12.0000000  12.0000000  12.0000000  12.0000000  12.0000000  14.0030740   1.0078250  12.0000000  12.0000000  12.0000000
 NucSpn=           0           0           0           0           0           2           1           0           0           0
 AtZEff=   0.0000000   0.0000000   0.0000000   0.0000000   0.0000000   0.0000000   0.0000000   0.0000000   0.0000000   0.0000000
 NQMom=    0.0000000   0.0000000   0.0000000   0.0000000   0.0000000   2.0440000   0.0000000   0.0000000   0.0000000   0.0000000
 NMagM=    0.0000000   0.0000000   0.0000000   0.0000000   0.0000000   0.4037610   2.7928460   0.0000000   0.0000000   0.0000000
 AtZNuc=   6.0000000   6.0000000   6.0000000   6.0000000   6.0000000   7.0000000   1.0000000   6.0000000   6.0000000   6.0000000

  Atom        11          12          13          14          15          16          17          18          19          20
 IAtWgt=          12          12           1           1           1          12          12          12          12          12
 AtmWgt=  12.0000000  12.0000000   1.0078250   1.0078250   1.0078250  12.0000000  12.0000000  12.0000000  12.0000000  12.0000000
 NucSpn=           0           0           1           1           1           0           0           0           0           0
 AtZEff=   0.0000000   0.0000000   0.0000000   0.0000000   0.0000000   0.0000000   0.0000000   0.0000000   0.0000000   0.0000000
 NQMom=    0.0000000   0.0000000   0.0000000   0.0000000   0.0000000   0.0000000   0.0000000   0.0000000   0.0000000   0.0000000
 NMagM=    0.0000000   0.0000000   2.7928460   2.7928460   2.7928460   0.0000000   0.0000000   0.0000000   0.0000000   0.0000000
 AtZNuc=   6.0000000   6.0000000   1.0000000   1.0000000   1.0000000   6.0000000   6.0000000   6.0000000   6.0000000   6.0000000

  Atom        21          22          23          24          25          26          27          28          29          30
 IAtWgt=           1          12           1          12           1           1           1          19          12           1
 AtmWgt=   1.0078250  12.0000000   1.0078250  12.0000000   1.0078250   1.0078250   1.0078250  18.9984032  12.0000000   1.0078250
 NucSpn=           1           0           1           0           1           1           1           1           0           1
 AtZEff=   0.0000000   0.0000000   0.0000000   0.0000000   0.0000000   0.0000000   0.0000000   0.0000000   0.0000000   0.0000000
 NQMom=    0.0000000   0.0000000   0.0000000   0.0000000   0.0000000   0.0000000   0.0000000   0.0000000   0.0000000   0.0000000
 NMagM=    2.7928460   0.0000000   2.7928460   0.0000000   2.7928460   2.7928460   2.7928460   2.6288670   0.0000000   2.7928460
 AtZNuc=   1.0000000   6.0000000   1.0000000   6.0000000   1.0000000   1.0000000   1.0000000   9.0000000   6.0000000   1.0000000

  Atom        31          32          33          34          35          36          37          38          39          40
 IAtWgt=           1           1          12          12          12           1           1          12           1           1
 AtmWgt=   1.0078250   1.0078250  12.0000000  12.0000000  12.0000000   1.0078250   1.0078250  12.0000000   1.0078250   1.0078250
 NucSpn=           1           1           0           0           0           1           1           0           1           1
 AtZEff=   0.0000000   0.0000000   0.0000000   0.0000000   0.0000000   0.0000000   0.0000000   0.0000000   0.0000000   0.0000000
 NQMom=    0.0000000   0.0000000   0.0000000   0.0000000   0.0000000   0.0000000   0.0000000   0.0000000   0.0000000   0.0000000
 NMagM=    2.7928460   2.7928460   0.0000000   0.0000000   0.0000000   2.7928460   2.7928460   0.0000000   2.7928460   2.7928460
 AtZNuc=   1.0000000   1.0000000   6.0000000   6.0000000   6.0000000   1.0000000   1.0000000   6.0000000   1.0000000   1.0000000

  Atom        41          42          43          44          45          46          47          48          49          50
 IAtWgt=           1           1           1           1          14          16         127           1          12          12
 AtmWgt=   1.0078250   1.0078250   1.0078250   1.0078250  14.0030740  15.9949146 126.9004000   1.0078250  12.0000000  12.0000000
 NucSpn=           1           1           1           1           2           0           5           1           0           0
 AtZEff=   0.0000000   0.0000000   0.0000000   0.0000000   0.0000000   0.0000000   0.0000000   0.0000000   0.0000000   0.0000000
 NQMom=    0.0000000   0.0000000   0.0000000   0.0000000   2.0440000   0.0000000 -71.0000000   0.0000000   0.0000000   0.0000000
 NMagM=    2.7928460   2.7928460   2.7928460   2.7928460   0.4037610   0.0000000   2.8132800   2.7928460   0.0000000   0.0000000
 AtZNuc=   1.0000000   1.0000000   1.0000000   1.0000000   7.0000000   8.0000000  53.0000000   1.0000000   6.0000000   6.0000000

  Atom        51          52          53          54          55          56          57          58          59          60
 IAtWgt=          12          12          12          12           1           1          12          12           1           1
 AtmWgt=  12.0000000  12.0000000  12.0000000  12.0000000   1.0078250   1.0078250  12.0000000  12.0000000   1.0078250   1.0078250
 NucSpn=           0           0           0           0           1           1           0           0           1           1
 AtZEff=   0.0000000   0.0000000   0.0000000   0.0000000   0.0000000   0.0000000   0.0000000   0.0000000   0.0000000   0.0000000
 NQMom=    0.0000000   0.0000000   0.0000000   0.0000000   0.0000000   0.0000000   0.0000000   0.0000000   0.0000000   0.0000000
 NMagM=    0.0000000   0.0000000   0.0000000   0.0000000   2.7928460   2.7928460   0.0000000   0.0000000   2.7928460   2.7928460
 AtZNuc=   6.0000000   6.0000000   6.0000000   6.0000000   1.0000000   1.0000000   6.0000000   6.0000000   1.0000000   1.0000000

  Atom        61          62          63          64          65          66          67          68          69          70
 IAtWgt=          12          12           1          12          12          12          12          12          12          12
 AtmWgt=  12.0000000  12.0000000   1.0078250  12.0000000  12.0000000  12.0000000  12.0000000  12.0000000  12.0000000  12.0000000
 NucSpn=           0           0           1           0           0           0           0           0           0           0
 AtZEff=   0.0000000   0.0000000   0.0000000   0.0000000   0.0000000   0.0000000   0.0000000   0.0000000   0.0000000   0.0000000
 NQMom=    0.0000000   0.0000000   0.0000000   0.0000000   0.0000000   0.0000000   0.0000000   0.0000000   0.0000000   0.0000000
 NMagM=    0.0000000   0.0000000   2.7928460   0.0000000   0.0000000   0.0000000   0.0000000   0.0000000   0.0000000   0.0000000
 AtZNuc=   6.0000000   6.0000000   1.0000000   6.0000000   6.0000000   6.0000000   6.0000000   6.0000000   6.0000000   6.0000000

  Atom        71          72          73          74          75          76          77          78          79          80
 IAtWgt=          12          12           1           1          12           1           1           1          32          16
 AtmWgt=  12.0000000  12.0000000   1.0078250   1.0078250  12.0000000   1.0078250   1.0078250   1.0078250  31.9720718  15.9949146
 NucSpn=           0           0           1           1           0           1           1           1           0           0
 AtZEff=   0.0000000   0.0000000   0.0000000   0.0000000   0.0000000   0.0000000   0.0000000   0.0000000   0.0000000   0.0000000
 NQMom=    0.0000000   0.0000000   0.0000000   0.0000000   0.0000000   0.0000000   0.0000000   0.0000000   0.0000000   0.0000000
 NMagM=    0.0000000   0.0000000   2.7928460   2.7928460   0.0000000   2.7928460   2.7928460   2.7928460   0.0000000   0.0000000
 AtZNuc=   6.0000000   6.0000000   1.0000000   1.0000000   6.0000000   1.0000000   1.0000000   1.0000000  16.0000000   8.0000000

  Atom        81          82          83          84          85          86          87          88          89          90
 IAtWgt=          16          32          16          16          14          12          12          12          12          12
 AtmWgt=  15.9949146  31.9720718  15.9949146  15.9949146  14.0030740  12.0000000  12.0000000  12.0000000  12.0000000  12.0000000
 NucSpn=           0           0           0           0           2           0           0           0           0           0
 AtZEff=   0.0000000   0.0000000   0.0000000   0.0000000   0.0000000   0.0000000   0.0000000   0.0000000   0.0000000   0.0000000
 NQMom=    0.0000000   0.0000000   0.0000000   0.0000000   2.0440000   0.0000000   0.0000000   0.0000000   0.0000000   0.0000000
 NMagM=    0.0000000   0.0000000   0.0000000   0.0000000   0.4037610   0.0000000   0.0000000   0.0000000   0.0000000   0.0000000
 AtZNuc=   8.0000000  16.0000000   8.0000000   8.0000000   7.0000000   6.0000000   6.0000000   6.0000000   6.0000000   6.0000000

  Atom        91          92          93          94          95          96          97          98          99         100
 IAtWgt=          12          12          12          12           1          12           1           1           1          12
 AtmWgt=  12.0000000  12.0000000  12.0000000  12.0000000   1.0078250  12.0000000   1.0078250   1.0078250   1.0078250  12.0000000
 NucSpn=           0           0           0           0           1           0           1           1           1           0
 AtZEff=   0.0000000   0.0000000   0.0000000   0.0000000   0.0000000   0.0000000   0.0000000   0.0000000   0.0000000   0.0000000
 NQMom=    0.0000000   0.0000000   0.0000000   0.0000000   0.0000000   0.0000000   0.0000000   0.0000000   0.0000000   0.0000000
 NMagM=    0.0000000   0.0000000   0.0000000   0.0000000   2.7928460   0.0000000   2.7928460   2.7928460   2.7928460   0.0000000
 AtZNuc=   6.0000000   6.0000000   6.0000000   6.0000000   1.0000000   6.0000000   1.0000000   1.0000000   1.0000000   6.0000000

  Atom       101         102         103         104         105         106         107         108         109         110
 IAtWgt=          12          12          12           1          12          12           1           1           1          12
 AtmWgt=  12.0000000  12.0000000  12.0000000   1.0078250  12.0000000  12.0000000   1.0078250   1.0078250   1.0078250  12.0000000
 NucSpn=           0           0           0           1           0           0           1           1           1           0
 AtZEff=   0.0000000   0.0000000   0.0000000   0.0000000   0.0000000   0.0000000   0.0000000   0.0000000   0.0000000   0.0000000
 NQMom=    0.0000000   0.0000000   0.0000000   0.0000000   0.0000000   0.0000000   0.0000000   0.0000000   0.0000000   0.0000000
 NMagM=    0.0000000   0.0000000   0.0000000   2.7928460   0.0000000   0.0000000   2.7928460   2.7928460   2.7928460   0.0000000
 AtZNuc=   6.0000000   6.0000000   6.0000000   1.0000000   6.0000000   6.0000000   1.0000000   1.0000000   1.0000000   6.0000000

  Atom       111         112         113         114         115         116         117
 IAtWgt=          19          19          19          12          19          19          19
 AtmWgt=  18.9984032  18.9984032  18.9984032  12.0000000  18.9984032  18.9984032  18.9984032
 NucSpn=           1           1           1           0           1           1           1
 AtZEff=   0.0000000   0.0000000   0.0000000   0.0000000   0.0000000   0.0000000   0.0000000
 NQMom=    0.0000000   0.0000000   0.0000000   0.0000000   0.0000000   0.0000000   0.0000000
 NMagM=    2.6288670   2.6288670   2.6288670   0.0000000   2.6288670   2.6288670   2.6288670
 AtZNuc=   9.0000000   9.0000000   9.0000000   6.0000000   9.0000000   9.0000000   9.0000000
 Leave Link  101 at Tue Jun 11 17:54:38 2024, MaxMem=  8321499136 cpu:               2.6 elap:               0.1
 (Enter /opt/packages/gaussian/g16RevC.01/g16/l103.exe)

 GradGradGradGradGradGradGradGradGradGradGradGradGradGradGradGradGradGrad
 Berny optimization.
 Initialization pass.
 Trust Radius=3.00D-01 FncErr=1.00D-07 GrdErr=1.00D-07 EigMax=2.50D+02 EigMin=1.00D-04
 Number of steps in this run=      2 maximum allowed number of steps=      2.
 GradGradGradGradGradGradGradGradGradGradGradGradGradGradGradGradGradGrad

 Leave Link  103 at Tue Jun 11 17:54:38 2024, MaxMem=  8321499136 cpu:               0.6 elap:               0.0
 (Enter /opt/packages/gaussian/g16RevC.01/g16/l202.exe)
 Symmetry turned off by external request.
 Stoichiometry    C60H39F7IN3O5S2
 Framework group  C1[X(C60H39F7IN3O5S2)]
 Deg. of freedom   345
 Full point group                 C1      NOp   1
                          Input orientation:                          
 ---------------------------------------------------------------------
 Center     Atomic      Atomic             Coordinates (Angstroms)
 Number     Number       Type             X           Y           Z
 ---------------------------------------------------------------------
      1          6           0       -0.659177   -2.813448   -0.433654
      2          6           0        0.460701   -2.141561   -1.094234
      3          6           0        1.776292   -2.458806   -0.528207
      4          6           0        1.844075   -3.005339    0.719689
      5          6           0        0.630280   -3.208716    1.449241
      6          7           0       -0.558744   -3.245661    0.788282
      7          1           0        2.818242   -3.150377    1.179064
      8          6           0       -2.004831   -3.014035   -1.054244
      9          6           0       -3.203585   -2.555983   -0.457932
     10          6           0       -4.424100   -2.860213   -1.075444
     11          6           0       -3.315386   -4.159085   -2.780032
     12          6           0       -4.481506   -3.635124   -2.231361
     13          1           0       -5.344427   -2.466881   -0.638223
     14          1           0       -5.445343   -3.850287   -2.695609
     15          1           0       -3.316657   -4.814504   -3.651200
     16          6           0       -2.110836   -3.851043   -2.167879
     17          6           0       -3.228957   -1.827429    0.841113
     18          6           0       -4.072164   -2.289188    1.861807
     19          6           0       -2.425627   -0.707772    1.083238
     20          6           0       -4.098453   -1.651814    3.102250
     21          1           0       -4.695262   -3.169246    1.687352
     22          6           0       -2.454421   -0.065954    2.320041
     23          1           0       -1.788927   -0.328548    0.283899
     24          6           0       -3.289671   -0.539352    3.334267
     25          1           0       -4.755054   -2.027407    3.889438
     26          1           0       -1.809882    0.799703    2.483602
     27          1           0       -3.310805   -0.038097    4.303753
     28          9           0       -1.001690   -4.444155   -2.624887
     29          6           0        3.022338   -2.015350   -1.218928
     30          1           0        2.955576   -0.934263   -1.425901
     31          1           0        3.902758   -2.202776   -0.592822
     32          1           0        3.143188   -2.524660   -2.186330
     33          6           0        1.746246   -3.365172    3.649840
     34          6           0       -0.681667   -3.432367    3.509825
     35          6           0        1.662702   -4.551226    4.603695
     36          1           0        1.737471   -2.422553    4.221287
     37          1           0        2.675813   -3.417597    3.077345
     38          6           0       -0.653470   -4.615507    4.464193
     39          1           0       -0.777113   -2.495072    4.082864
     40          1           0       -1.516786   -3.503024    2.806214
     41          1           0        2.486281   -4.497353    5.327835
     42          1           0        1.764361   -5.489042    4.024266
     43          1           0       -1.557418   -4.607361    5.086976
     44          1           0       -0.634277   -5.557582    3.883565
     45          7           0        0.581751   -3.372090    2.769002
     46          8           0        0.458555   -4.549223    5.324413
     47         53           0        0.409358   -1.745850   -3.183118
     48          1           0        0.388999   -0.913194   -0.672206
     49          6           0        1.964406    6.819849   -1.574939
     50          6           0        1.336214    5.774397   -0.941122
     51          6           0        2.069224    4.620245   -0.546744
     52          6           0        3.459465    4.562339   -0.848913
     53          6           0        4.084547    5.663377   -1.497541
     54          6           0        3.353733    6.770505   -1.849258
     55          1           0        1.386178    7.695076   -1.874877
     56          1           0        0.264528    5.825410   -0.747959
     57          6           0        1.454588    3.504796    0.112666
     58          6           0        4.197025    3.401255   -0.518833
     59          1           0        5.152495    5.602837   -1.715338
     60          1           0        3.836558    7.611051   -2.349987
     61          6           0        3.598425    2.309622    0.080644
     62          6           0        2.202308    2.376634    0.397827
     63          1           0        5.261565    3.360486   -0.755642
     64          6           0       -0.009097    3.584169    0.435387
     65          6           0       -0.938607    2.777359   -0.196305
     66          6           0       -0.430306    4.487023    1.466491
     67          6           0       -2.333156    2.857721    0.123769
     68          6           0       -1.815752    4.570429    1.785675
     69          6           0        0.486522    5.280611    2.211981
     70          6           0       -2.740491    3.753653    1.095300
     71          6           0       -2.250300    5.461909    2.806183
     72          6           0        0.039394    6.126892    3.198275
     73          1           0        1.554588    5.209018    2.005979
     74          1           0       -3.801727    3.821605    1.341294
     75          6           0       -1.342922    6.226964    3.494835
     76          1           0       -3.317106    5.516733    3.031133
     77          1           0        0.756796    6.724556    3.762639
     78          1           0       -1.680318    6.907069    4.278445
     79         16           0        1.308408    0.950847    0.996284
     80          8           0        0.468300    1.401837    2.062143
     81          8           0        2.202048   -0.120049    1.294901
     82         16           0       -0.310267    1.521349   -1.299848
     83          8           0        0.595592    2.160248   -2.198977
     84          8           0       -1.390654    0.779773   -1.863490
     85          7           0        0.458521    0.500559   -0.299383
     86          6           0        4.422967    1.168789    0.357250
     87          6           0        5.166495    0.232631    0.560855
     88          6           0       -3.354634    2.066464   -0.496259
     89          6           0       -4.286229    1.431120   -0.942234
     90          6           0       -5.328962    0.616480   -1.488298
     91          6           0       -6.497884    0.327812   -0.754920
     92          6           0       -5.183070    0.071316   -2.772683
     93          6           0       -7.488544   -0.485956   -1.295912
     94          6           0       -6.181507   -0.735064   -3.312003
     95          1           0       -4.272443    0.285079   -3.333200
     96          6           0       -7.332321   -1.017213   -2.577077
     97          1           0       -8.385863   -0.702121   -0.715767
     98          1           0       -6.053923   -1.151910   -4.312358
     99          1           0       -8.113946   -1.650709   -2.998675
    100          6           0        5.937422   -0.943102    0.837998
    101          6           0        5.770957   -1.599272    2.067713
    102          6           0        6.828685   -1.489621   -0.106893
    103          6           0        6.477900   -2.766589    2.345681
    104          1           0        5.078124   -1.177817    2.797118
    105          6           0        7.531856   -2.656525    0.176575
    106          6           0        7.358392   -3.296596    1.403810
    107          1           0        6.340473   -3.264228    3.307067
    108          1           0        8.215926   -3.067488   -0.565971
    109          1           0        7.912906   -4.210273    1.620916
    110          6           0       -6.662623    0.905144    0.627172
    111          9           0       -5.689090    0.515117    1.453077
    112          9           0       -7.819783    0.538718    1.184189
    113          9           0       -6.643866    2.243772    0.614220
    114          6           0        6.989812   -0.816893   -1.445867
    115          9           0        5.845090   -0.812742   -2.138393
    116          9           0        7.901594   -1.429211   -2.203250
    117          9           0        7.372251    0.457522   -1.323881
 ---------------------------------------------------------------------
 Rotational constants (GHZ):           0.0312018           0.0215704           0.0177452
 Leave Link  202 at Tue Jun 11 17:54:38 2024, MaxMem=  8321499136 cpu:               0.4 elap:               0.0
 (Enter /opt/packages/gaussian/g16RevC.01/g16/l301.exe)
 General basis read from cards:  (5D, 7F)
 Centers:       1      2      3      4      5      8      9     10     11     12
 Centers:      16     17     18     19     20     22     24     29     33     34
 Centers:      35     38     49     50     51     52     53     54     57     58
 Centers:      61     62     64     65     66     67     68     69     70     71
 Centers:      72     75     86     87     88     89     90     91     92     93
 Centers:      94     96    100    101    102    103    105    106    110    114
 Centers:       7     13     14     15     21     23     25     26     27     30
 Centers:      31     32     36     37     39     40     41     42     43     44
 Centers:      48     55     56     59     60     63     73     74     76     77
 Centers:      78     95     97     98     99    104    107    108    109      6
 Centers:      45     85     28    111    112    113    115    116    117     46
 Centers:      80     81     83     84
 def2svp
 ****
 Centers:      47     79     82
 def2tzvp
 ****
 ======================================================================================================
                                       Pseudopotential Parameters
 ======================================================================================================
  Center     Atomic      Valence      Angular      Power
  Number     Number     Electrons     Momentum     of R      Exponent        Coefficient   SO-Coeffient
 ======================================================================================================
    1          6
                                   No pseudopotential on this center.
    2          6
                                   No pseudopotential on this center.
    3          6
                                   No pseudopotential on this center.
    4          6
                                   No pseudopotential on this center.
    5          6
                                   No pseudopotential on this center.
    6          7
                                   No pseudopotential on this center.
    7          1
                                   No pseudopotential on this center.
    8          6
                                   No pseudopotential on this center.
    9          6
                                   No pseudopotential on this center.
   10          6
                                   No pseudopotential on this center.
   11          6
                                   No pseudopotential on this center.
   12          6
                                   No pseudopotential on this center.
   13          1
                                   No pseudopotential on this center.
   14          1
                                   No pseudopotential on this center.
   15          1
                                   No pseudopotential on this center.
   16          6
                                   No pseudopotential on this center.
   17          6
                                   No pseudopotential on this center.
   18          6
                                   No pseudopotential on this center.
   19          6
                                   No pseudopotential on this center.
   20          6
                                   No pseudopotential on this center.
   21          1
                                   No pseudopotential on this center.
   22          6
                                   No pseudopotential on this center.
   23          1
                                   No pseudopotential on this center.
   24          6
                                   No pseudopotential on this center.
   25          1
                                   No pseudopotential on this center.
   26          1
                                   No pseudopotential on this center.
   27          1
                                   No pseudopotential on this center.
   28          9
                                   No pseudopotential on this center.
   29          6
                                   No pseudopotential on this center.
   30          1
                                   No pseudopotential on this center.
   31          1
                                   No pseudopotential on this center.
   32          1
                                   No pseudopotential on this center.
   33          6
                                   No pseudopotential on this center.
   34          6
                                   No pseudopotential on this center.
   35          6
                                   No pseudopotential on this center.
   36          1
                                   No pseudopotential on this center.
   37          1
                                   No pseudopotential on this center.
   38          6
                                   No pseudopotential on this center.
   39          1
                                   No pseudopotential on this center.
   40          1
                                   No pseudopotential on this center.
   41          1
                                   No pseudopotential on this center.
   42          1
                                   No pseudopotential on this center.
   43          1
                                   No pseudopotential on this center.
   44          1
                                   No pseudopotential on this center.
   45          7
                                   No pseudopotential on this center.
   46          8
                                   No pseudopotential on this center.
   47         53           25
                                      G and up 
                                                     2        1.0000000        0.00000000    0.00000000
                                      S - G
                                                     2       40.0158350       49.99429300    0.00000000
                                                     2       17.4297470      281.02531700    0.00000000
                                                     2        9.0054840       61.57332600    0.00000000
                                      P - G
                                                     2       15.3554660       67.44284100 -134.88568300
                                                     2       14.9718330      134.88113700  134.88113700
                                                     2        8.9601640       14.67505100  -29.35010100
                                                     2        8.2590960       29.37566600   29.37566600
                                      D - G
                                                     2       15.0689080       35.43952900  -35.43952900
                                                     2       14.5553220       53.17605700   35.45070400
                                                     2        6.7186470        9.06719500   -9.06719500
                                                     2        6.4563930       13.20693700    8.80462400
                                                     2        1.1917790        0.08933500   -0.08933500
                                                     2        1.2911570        0.05238000    0.03492000
                                      F - G
                                                     2       19.4586090      -21.84204000   14.56136000
                                                     2       19.3492600      -28.46819100  -14.23409500
                                                     2        4.8237670       -0.24371300    0.16247500
                                                     2        4.8843150       -0.32080400   -0.16040200
   48          1
                                   No pseudopotential on this center.
   49          6
                                   No pseudopotential on this center.
   50          6
                                   No pseudopotential on this center.
   51          6
                                   No pseudopotential on this center.
   52          6
                                   No pseudopotential on this center.
   53          6
                                   No pseudopotential on this center.
   54          6
                                   No pseudopotential on this center.
   55          1
                                   No pseudopotential on this center.
   56          1
                                   No pseudopotential on this center.
   57          6
                                   No pseudopotential on this center.
   58          6
                                   No pseudopotential on this center.
   59          1
                                   No pseudopotential on this center.
   60          1
                                   No pseudopotential on this center.
   61          6
                                   No pseudopotential on this center.
   62          6
                                   No pseudopotential on this center.
   63          1
                                   No pseudopotential on this center.
   64          6
                                   No pseudopotential on this center.
   65          6
                                   No pseudopotential on this center.
   66          6
                                   No pseudopotential on this center.
   67          6
                                   No pseudopotential on this center.
   68          6
                                   No pseudopotential on this center.
   69          6
                                   No pseudopotential on this center.
   70          6
                                   No pseudopotential on this center.
   71          6
                                   No pseudopotential on this center.
   72          6
                                   No pseudopotential on this center.
   73          1
                                   No pseudopotential on this center.
   74          1
                                   No pseudopotential on this center.
   75          6
                                   No pseudopotential on this center.
   76          1
                                   No pseudopotential on this center.
   77          1
                                   No pseudopotential on this center.
   78          1
                                   No pseudopotential on this center.
   79         16
                                   No pseudopotential on this center.
   80          8
                                   No pseudopotential on this center.
   81          8
                                   No pseudopotential on this center.
   82         16
                                   No pseudopotential on this center.
   83          8
                                   No pseudopotential on this center.
   84          8
                                   No pseudopotential on this center.
   85          7
                                   No pseudopotential on this center.
   86          6
                                   No pseudopotential on this center.
   87          6
                                   No pseudopotential on this center.
   88          6
                                   No pseudopotential on this center.
   89          6
                                   No pseudopotential on this center.
   90          6
                                   No pseudopotential on this center.
   91          6
                                   No pseudopotential on this center.
   92          6
                                   No pseudopotential on this center.
   93          6
                                   No pseudopotential on this center.
   94          6
                                   No pseudopotential on this center.
   95          1
                                   No pseudopotential on this center.
   96          6
                                   No pseudopotential on this center.
   97          1
                                   No pseudopotential on this center.
   98          1
                                   No pseudopotential on this center.
   99          1
                                   No pseudopotential on this center.
  100          6
                                   No pseudopotential on this center.
  101          6
                                   No pseudopotential on this center.
  102          6
                                   No pseudopotential on this center.
  103          6
                                   No pseudopotential on this center.
  104          1
                                   No pseudopotential on this center.
  105          6
                                   No pseudopotential on this center.
  106          6
                                   No pseudopotential on this center.
  107          1
                                   No pseudopotential on this center.
  108          1
                                   No pseudopotential on this center.
  109          1
                                   No pseudopotential on this center.
  110          6
                                   No pseudopotential on this center.
  111          9
                                   No pseudopotential on this center.
  112          9
                                   No pseudopotential on this center.
  113          9
                                   No pseudopotential on this center.
  114          6
                                   No pseudopotential on this center.
  115          9
                                   No pseudopotential on this center.
  116          9
                                   No pseudopotential on this center.
  117          9
                                   No pseudopotential on this center.
 ======================================================================================================
 Ernie: Thresh=  0.10000D-02 Tol=  0.10000D-05 Strict=F.
  1369 basis functions,  2395 primitive gaussians,  1463 cartesian basis functions
   290 alpha electrons      290 beta electrons
       nuclear repulsion energy     15667.3267773435 Hartrees.
 IExCor= 4336 DFT=T Ex+Corr=M062X ExCW=0 ScaHFX=  0.540000
 ScaDFX=  1.000000  1.000000  1.000000  1.000000 ScalE2=  1.000000  1.000000
 IRadAn=      5 IRanWt=     -1 IRanGd=            0 ICorTp=0 IEmpDi=131
 NAtoms=  117 NActive=  117 NUniq=  117 SFac= 1.00D+00 NAtFMM=   60 NAOKFM=T Big=T
 Integral buffers will be    131072 words long.
 Raffenetti 2 integral format.
 Two-electron integral symmetry is turned off.
 R6Disp:  Grimme-D3 Dispersion energy=       -0.0198131714 Hartrees.
 Nuclear repulsion after empirical dispersion term =    15667.3069641721 Hartrees.
 Force inversion solution in PCM.
 ------------------------------------------------------------------------------
 Polarizable Continuum Model (PCM)
 =================================
 Model                : PCM.
 Atomic radii         : SMD-Coulomb.
 Polarization charges : Total charges.
 Charge compensation  : None.
 Solution method      : Matrix inversion.
 Cavity type          : VdW (van der Waals Surface) (Alpha=1.000).
 Cavity algorithm     : GePol (No added spheres)
                        Default sphere list used, NSphG=  117.
                        Lebedev-Laikov grids with approx.  5.0 points / Ang**2.
                        Smoothing algorithm: York/Karplus (Gamma=1.0000).
                        Polarization charges: spherical gaussians, with
                                              point-specific exponents (IZeta= 3).
                        Self-potential: point-specific (ISelfS= 7).
                        Self-field    : sphere-specific E.n sum rule (ISelfD= 2).
 1st derivatives      : Analytical E(r).r(x)/FMM algorithm (CHGder, D1EAlg=3).
                        Cavity 1st derivative terms included.
 2nd derivatives      : Analytical E(r).r(xy)/FMM algorithm (CHGder, D2EAlg=3).
                        Cavity 2nd derivative terms included.
 Solvent              : PropylEthanoate, Eps=   5.520500 Eps(inf)=   1.916010
 ------------------------------------------------------------------------------
 GePol: Number of generator spheres                  =     117
 GePol: Total number of spheres                      =     117
 GePol: Number of exposed spheres                    =     117 (100.00%)
 GePol: Number of points                             =    8442
 GePol: Average weight of points                     =       0.11
 GePol: Minimum weight of points                     =   0.16D-11
 GePol: Maximum weight of points                     =    0.21501
 GePol: Number of points with low weight             =     571
 GePol: Fraction of low-weight points (<1% of avg)   =       6.76%
 GePol: Cavity surface area                          =    946.651 Ang**2
 GePol: Cavity volume                                =   1077.719 Ang**3
 ------------------------------------------------------------------------------
 Atomic radii for non-electrostatic terms: SMD-CDS.
 ------------------------------------------------------------------------------
 PCM non-electrostatic energy =        -0.0220685778 Hartrees.
 Nuclear repulsion after PCM non-electrostatic terms =    15667.2848955943 Hartrees.
 Leave Link  301 at Tue Jun 11 17:54:39 2024, MaxMem=  8321499136 cpu:               5.6 elap:               0.2
 (Enter /opt/packages/gaussian/g16RevC.01/g16/l302.exe)
 NPDir=0 NMtPBC=     1 NCelOv=     1 NCel=       1 NClECP=     1 NCelD=      1
         NCelK=      1 NCelE2=     1 NClLst=     1 CellRange=     0.0.
 One-electron integrals computed using PRISM.
   1 Symmetry operations used in ECPInt.
 ECPInt:  NShTT=  185745 NPrTT=  697989 LenC2=  130395 LenP2D=  289288.
 LDataN:  DoStor=T MaxTD1= 7 Len=  274
 NBasis=  1369 RedAO= T EigKep=  1.57D-04  NBF=  1369
 NBsUse=  1369 1.00D-06 EigRej= -1.00D+00 NBFU=  1369
 Precomputing XC quadrature grid using
 IXCGrd= 4 IRadAn=           5 IRanWt=          -1 IRanGd=           0 AccXCQ= 0.00D+00.
 Defaulting to unpruned grid for atomic number  53.
 Generated NRdTot=       0 NPtTot=           0 NUsed=           0 NTot=          32
 NSgBfM=  1285  1273  1274  1278  1285 MxSgAt=   117 MxSgA2=   117.
 Leave Link  302 at Tue Jun 11 17:54:43 2024, MaxMem=  8321499136 cpu:             129.5 elap:               4.1
 (Enter /opt/packages/gaussian/g16RevC.01/g16/l303.exe)
 DipDrv:  MaxL=1.
 Leave Link  303 at Tue Jun 11 17:54:43 2024, MaxMem=  8321499136 cpu:               9.1 elap:               0.4
 (Enter /opt/packages/gaussian/g16RevC.01/g16/l401.exe)
 ExpMin= 7.49D-02 ExpMax= 6.07D+04 ExpMxC= 2.07D+03 IAcc=3 IRadAn=         5 AccDes= 0.00D+00
 Harris functional with IExCor= 1009 and IRadAn=       5 diagonalized for initial guess.
 HarFok:  IExCor= 1009 AccDes= 0.00D+00 IRadAn=         5 IDoV= 1 UseB2=F ITyADJ=14
 ICtDFT=  3500011 ScaDFX=  1.000000  1.000000  1.000000  1.000000
 Defaulting to unpruned grid for atomic number  53.
 FoFCou: FMM=F IPFlag=           0 FMFlag=      100000 FMFlg1=        2001
         NFxFlg=           0 DoJE=T BraDBF=F KetDBF=T FulRan=T
         wScrn=  0.000000 ICntrl=       500 IOpCl=  0 I1Cent=   200000004 NGrid=           0
         NMat0=    1 NMatS0=      1 NMatT0=    0 NMatD0=    1 NMtDS0=    0 NMtDT0=    0
 Symmetry not used in FoFCou.
 Harris En= -4637.17467438524    
 JPrj=0 DoOrth=F DoCkMO=F.
 Leave Link  401 at Tue Jun 11 17:54:51 2024, MaxMem=  8321499136 cpu:             247.6 elap:               7.8
 (Enter /opt/packages/gaussian/g16RevC.01/g16/l502.exe)
 Two-electron integral symmetry not used.
 Closed shell SCF:
 Using DIIS extrapolation, IDIIS=  1040.
 NGot=  8321499136 LenX=  8317157783 LenY=  8315015951
 Requested convergence on RMS density matrix=1.00D-08 within 128 cycles.
 Requested convergence on MAX density matrix=1.00D-06.
 Requested convergence on             energy=1.00D-06.
 No special actions if energy rises.
 Fock matrices will be formed incrementally for  20 cycles.

 Cycle   1  Pass 1  IDiag  1:
 FoFJK:  IHMeth= 1 ICntrl=       0 DoSepK=F KAlg= 0 I1Cent=           0 FoldK=F
 IRaf= 740000000 NMat=       1 IRICut=       1 DoRegI=T DoRafI=F ISym2E= 0 IDoP0=0 IntGTp=1.
 FoFCou: FMM=T IPFlag=           0 FMFlag=      100000 FMFlg1=        2001
         NFxFlg=           0 DoJE=F BraDBF=F KetDBF=F FulRan=T
         wScrn=  0.000000 ICntrl=         0 IOpCl=  0 I1Cent=           0 NGrid=           0
         NMat0=    1 NMatS0=      1 NMatT0=    0 NMatD0=    1 NMtDS0=    0 NMtDT0=    0
 Symmetry not used in FoFCou.
 FMM levels:  10  Number of levels for PrismC:   9
 Defaulting to unpruned grid for atomic number  53.
 Defaulting to unpruned grid for atomic number  53.
 Defaulting to unpruned grid for atomic number  53.
 Defaulting to unpruned grid for atomic number  53.
 Defaulting to unpruned grid for atomic number  53.
 Defaulting to unpruned grid for atomic number  53.
 Defaulting to unpruned grid for atomic number  53.
 Defaulting to unpruned grid for atomic number  53.
 Defaulting to unpruned grid for atomic number  53.
 Defaulting to unpruned grid for atomic number  53.
 Defaulting to unpruned grid for atomic number  53.
 Defaulting to unpruned grid for atomic number  53.
 Defaulting to unpruned grid for atomic number  53.
 Defaulting to unpruned grid for atomic number  53.
 Defaulting to unpruned grid for atomic number  53.
 Defaulting to unpruned grid for atomic number  53.
 Defaulting to unpruned grid for atomic number  53.
 Defaulting to unpruned grid for atomic number  53.
 Defaulting to unpruned grid for atomic number  53.
 Defaulting to unpruned grid for atomic number  53.
 Defaulting to unpruned grid for atomic number  53.
 Defaulting to unpruned grid for atomic number  53.
 Defaulting to unpruned grid for atomic number  53.
 Defaulting to unpruned grid for atomic number  53.
 Defaulting to unpruned grid for atomic number  53.
 Defaulting to unpruned grid for atomic number  53.
 Defaulting to unpruned grid for atomic number  53.
 Defaulting to unpruned grid for atomic number  53.
 Defaulting to unpruned grid for atomic number  53.
 Defaulting to unpruned grid for atomic number  53.
 Defaulting to unpruned grid for atomic number  53.
 Defaulting to unpruned grid for atomic number  53.
 Inv3:  Mode=1 IEnd=   213802092.
 Iteration    1 A*A^-1 deviation from unit magnitude is 3.55D-15 for    728.
 Iteration    1 A*A^-1 deviation from orthogonality  is 2.62D-15 for   6129    353.
 Iteration    1 A^-1*A deviation from unit magnitude is 4.22D-15 for   1264.
 Iteration    1 A^-1*A deviation from orthogonality  is 2.75D-14 for   4833   4801.
 E= -4637.64518670499    
 DIIS: error= 2.37D-02 at cycle   1 NSaved=   1.
 NSaved= 1 IEnMin= 1 EnMin= -4637.64518670499     IErMin= 1 ErrMin= 2.37D-02
 ErrMax= 2.37D-02  0.00D+00 EMaxC= 1.00D-01 BMatC= 1.77D+00 BMatP= 1.77D+00
 IDIUse=3 WtCom= 7.63D-01 WtEn= 2.37D-01
 Coeff-Com:  0.100D+01
 Coeff-En:   0.100D+01
 Coeff:      0.100D+01
 Gap=     0.345 Goal=   None    Shift=    0.000
 GapD=    0.345 DampG=1.000 DampE=0.500 DampFc=0.5000 IDamp=-1.
 Damping current iteration by 5.00D-01
 RMSDP=2.22D-03 MaxDP=2.51D-01              OVMax= 1.50D-01

 Cycle   2  Pass 1  IDiag  1:
 RMSU=  1.08D-03    CP:  9.76D-01
 E= -4638.32686677970     Delta-E=       -0.681680074711 Rises=F Damp=T
 DIIS: error= 7.96D-03 at cycle   2 NSaved=   2.
 NSaved= 2 IEnMin= 2 EnMin= -4638.32686677970     IErMin= 2 ErrMin= 7.96D-03
 ErrMax= 7.96D-03  0.00D+00 EMaxC= 1.00D-01 BMatC= 1.67D-01 BMatP= 1.77D+00
 IDIUse=3 WtCom= 9.20D-01 WtEn= 7.96D-02
 Coeff-Com:  0.416D-02 0.996D+00
 Coeff-En:   0.000D+00 0.100D+01
 Coeff:      0.383D-02 0.996D+00
 Gap=     0.210 Goal=   None    Shift=    0.000
 RMSDP=8.48D-04 MaxDP=9.04D-02 DE=-6.82D-01 OVMax= 1.32D-01

 Cycle   3  Pass 1  IDiag  1:
 RMSU=  8.10D-04    CP:  9.57D-01  1.14D+00
 E= -4639.02024079450     Delta-E=       -0.693374014796 Rises=F Damp=F
 DIIS: error= 1.24D-02 at cycle   3 NSaved=   3.
 NSaved= 3 IEnMin= 3 EnMin= -4639.02024079450     IErMin= 2 ErrMin= 7.96D-03
 ErrMax= 1.24D-02  0.00D+00 EMaxC= 1.00D-01 BMatC= 1.45D-01 BMatP= 1.67D-01
 IDIUse=3 WtCom= 8.76D-01 WtEn= 1.24D-01
 Coeff-Com: -0.896D-01 0.519D+00 0.570D+00
 Coeff-En:   0.000D+00 0.000D+00 0.100D+01
 Coeff:     -0.785D-01 0.455D+00 0.624D+00
 Gap=     0.216 Goal=   None    Shift=    0.000
 RMSDP=4.67D-04 MaxDP=4.15D-02 DE=-6.93D-01 OVMax= 5.73D-02

 Cycle   4  Pass 1  IDiag  1:
 RMSU=  2.90D-04    CP:  9.60D-01  1.23D+00  5.65D-01
 E= -4639.12301025500     Delta-E=       -0.102769460500 Rises=F Damp=F
 DIIS: error= 3.75D-03 at cycle   4 NSaved=   4.
 NSaved= 4 IEnMin= 4 EnMin= -4639.12301025500     IErMin= 4 ErrMin= 3.75D-03
 ErrMax= 3.75D-03  0.00D+00 EMaxC= 1.00D-01 BMatC= 2.52D-02 BMatP= 1.45D-01
 IDIUse=3 WtCom= 9.63D-01 WtEn= 3.75D-02
 Coeff-Com: -0.328D-01 0.111D+00 0.333D+00 0.588D+00
 Coeff-En:   0.000D+00 0.000D+00 0.147D+00 0.853D+00
 Coeff:     -0.316D-01 0.107D+00 0.326D+00 0.598D+00
 Gap=     0.208 Goal=   None    Shift=    0.000
 RMSDP=1.64D-04 MaxDP=2.27D-02 DE=-1.03D-01 OVMax= 2.60D-02

 Cycle   5  Pass 1  IDiag  1:
 RMSU=  7.07D-05    CP:  9.60D-01  1.21D+00  6.94D-01  6.49D-01
 E= -4639.14417660097     Delta-E=       -0.021166345970 Rises=F Damp=F
 DIIS: error= 4.80D-04 at cycle   5 NSaved=   5.
 NSaved= 5 IEnMin= 5 EnMin= -4639.14417660097     IErMin= 5 ErrMin= 4.80D-04
 ErrMax= 4.80D-04  0.00D+00 EMaxC= 1.00D-01 BMatC= 1.26D-03 BMatP= 2.52D-02
 IDIUse=3 WtCom= 9.95D-01 WtEn= 4.80D-03
 Coeff-Com: -0.862D-02 0.136D-01 0.107D+00 0.286D+00 0.602D+00
 Coeff-En:   0.000D+00 0.000D+00 0.000D+00 0.000D+00 0.100D+01
 Coeff:     -0.858D-02 0.135D-01 0.107D+00 0.284D+00 0.604D+00
 Gap=     0.207 Goal=   None    Shift=    0.000
 RMSDP=3.73D-05 MaxDP=4.77D-03 DE=-2.12D-02 OVMax= 7.69D-03

 Cycle   6  Pass 1  IDiag  1:
 RMSU=  2.45D-05    CP:  9.60D-01  1.22D+00  6.90D-01  6.97D-01  6.85D-01
 E= -4639.14531582196     Delta-E=       -0.001139220996 Rises=F Damp=F
 DIIS: error= 1.70D-04 at cycle   6 NSaved=   6.
 NSaved= 6 IEnMin= 6 EnMin= -4639.14531582196     IErMin= 6 ErrMin= 1.70D-04
 ErrMax= 1.70D-04  0.00D+00 EMaxC= 1.00D-01 BMatC= 1.01D-04 BMatP= 1.26D-03
 IDIUse=3 WtCom= 9.98D-01 WtEn= 1.70D-03
 Coeff-Com: -0.159D-02-0.124D-02 0.212D-01 0.764D-01 0.280D+00 0.626D+00
 Coeff-En:   0.000D+00 0.000D+00 0.000D+00 0.000D+00 0.000D+00 0.100D+01
 Coeff:     -0.159D-02-0.124D-02 0.212D-01 0.763D-01 0.279D+00 0.626D+00
 Gap=     0.207 Goal=   None    Shift=    0.000
 RMSDP=1.10D-05 MaxDP=1.26D-03 DE=-1.14D-03 OVMax= 1.56D-03

 Cycle   7  Pass 1  IDiag  1:
 RMSU=  8.38D-06    CP:  9.60D-01  1.22D+00  6.92D-01  7.01D-01  7.41D-01
                    CP:  7.71D-01
 E= -4639.14540773136     Delta-E=       -0.000091909395 Rises=F Damp=F
 DIIS: error= 8.03D-05 at cycle   7 NSaved=   7.
 NSaved= 7 IEnMin= 7 EnMin= -4639.14540773136     IErMin= 7 ErrMin= 8.03D-05
 ErrMax= 8.03D-05  0.00D+00 EMaxC= 1.00D-01 BMatC= 1.46D-05 BMatP= 1.01D-04
 IDIUse=1 WtCom= 1.00D+00 WtEn= 0.00D+00
 Coeff-Com:  0.163D-03-0.215D-02-0.293D-02 0.223D-02 0.696D-01 0.317D+00
 Coeff-Com:  0.616D+00
 Coeff:      0.163D-03-0.215D-02-0.293D-02 0.223D-02 0.696D-01 0.317D+00
 Coeff:      0.616D+00
 Gap=     0.207 Goal=   None    Shift=    0.000
 RMSDP=4.05D-06 MaxDP=5.60D-04 DE=-9.19D-05 OVMax= 7.58D-04

 Cycle   8  Pass 1  IDiag  1:
 RMSU=  3.42D-06    CP:  9.60D-01  1.22D+00  6.93D-01  7.03D-01  7.52D-01
                    CP:  8.33D-01  8.64D-01
 E= -4639.14542224186     Delta-E=       -0.000014510500 Rises=F Damp=F
 DIIS: error= 2.33D-05 at cycle   8 NSaved=   8.
 NSaved= 8 IEnMin= 8 EnMin= -4639.14542224186     IErMin= 8 ErrMin= 2.33D-05
 ErrMax= 2.33D-05  0.00D+00 EMaxC= 1.00D-01 BMatC= 1.63D-06 BMatP= 1.46D-05
 IDIUse=1 WtCom= 1.00D+00 WtEn= 0.00D+00
 Coeff-Com:  0.272D-03-0.750D-03-0.486D-02-0.109D-01-0.802D-02 0.537D-01
 Coeff-Com:  0.278D+00 0.693D+00
 Coeff:      0.272D-03-0.750D-03-0.486D-02-0.109D-01-0.802D-02 0.537D-01
 Coeff:      0.278D+00 0.693D+00
 Gap=     0.207 Goal=   None    Shift=    0.000
 RMSDP=1.72D-06 MaxDP=1.73D-04 DE=-1.45D-05 OVMax= 3.83D-04

 Cycle   9  Pass 1  IDiag  1:
 RMSU=  1.27D-06    CP:  9.60D-01  1.22D+00  6.93D-01  7.04D-01  7.57D-01
                    CP:  8.56D-01  9.43D-01  8.49D-01
 E= -4639.14542413524     Delta-E=       -0.000001893382 Rises=F Damp=F
 DIIS: error= 1.07D-05 at cycle   9 NSaved=   9.
 NSaved= 9 IEnMin= 9 EnMin= -4639.14542413524     IErMin= 9 ErrMin= 1.07D-05
 ErrMax= 1.07D-05  0.00D+00 EMaxC= 1.00D-01 BMatC= 2.96D-07 BMatP= 1.63D-06
 IDIUse=1 WtCom= 1.00D+00 WtEn= 0.00D+00
 Coeff-Com:  0.962D-04-0.545D-04-0.215D-02-0.596D-02-0.129D-01-0.148D-01
 Coeff-Com:  0.563D-01 0.350D+00 0.630D+00
 Coeff:      0.962D-04-0.545D-04-0.215D-02-0.596D-02-0.129D-01-0.148D-01
 Coeff:      0.563D-01 0.350D+00 0.630D+00
 Gap=     0.207 Goal=   None    Shift=    0.000
 RMSDP=6.86D-07 MaxDP=5.64D-05 DE=-1.89D-06 OVMax= 1.42D-04

 Cycle  10  Pass 1  IDiag  1:
 RMSU=  5.16D-07    CP:  9.60D-01  1.22D+00  6.93D-01  7.04D-01  7.59D-01
                    CP:  8.62D-01  9.63D-01  9.40D-01  8.67D-01
 E= -4639.14542449836     Delta-E=       -0.000000363116 Rises=F Damp=F
 DIIS: error= 3.54D-06 at cycle  10 NSaved=  10.
 NSaved=10 IEnMin=10 EnMin= -4639.14542449836     IErMin=10 ErrMin= 3.54D-06
 ErrMax= 3.54D-06  0.00D+00 EMaxC= 1.00D-01 BMatC= 2.56D-08 BMatP= 2.96D-07
 IDIUse=1 WtCom= 1.00D+00 WtEn= 0.00D+00
 Coeff-Com:  0.215D-05 0.783D-04-0.289D-03-0.117D-02-0.446D-02-0.141D-01
 Coeff-Com: -0.141D-01 0.515D-01 0.243D+00 0.740D+00
 Coeff:      0.215D-05 0.783D-04-0.289D-03-0.117D-02-0.446D-02-0.141D-01
 Coeff:     -0.141D-01 0.515D-01 0.243D+00 0.740D+00
 Gap=     0.207 Goal=   None    Shift=    0.000
 RMSDP=2.95D-07 MaxDP=2.45D-05 DE=-3.63D-07 OVMax= 1.04D-04

 Cycle  11  Pass 1  IDiag  1:
 RMSU=  1.95D-07    CP:  9.60D-01  1.22D+00  6.93D-01  7.04D-01  7.59D-01
                    CP:  8.64D-01  9.76D-01  9.70D-01  9.86D-01  9.65D-01
 E= -4639.14542454252     Delta-E=       -0.000000044158 Rises=F Damp=F
 DIIS: error= 1.42D-06 at cycle  11 NSaved=  11.
 NSaved=11 IEnMin=11 EnMin= -4639.14542454252     IErMin=11 ErrMin= 1.42D-06
 ErrMax= 1.42D-06  0.00D+00 EMaxC= 1.00D-01 BMatC= 5.53D-09 BMatP= 2.56D-08
 IDIUse=1 WtCom= 1.00D+00 WtEn= 0.00D+00
 Coeff-Com: -0.175D-04 0.432D-04 0.281D-03 0.636D-03 0.623D-03-0.337D-02
 Coeff-Com: -0.159D-01-0.426D-01-0.212D-01 0.329D+00 0.752D+00
 Coeff:     -0.175D-04 0.432D-04 0.281D-03 0.636D-03 0.623D-03-0.337D-02
 Coeff:     -0.159D-01-0.426D-01-0.212D-01 0.329D+00 0.752D+00
 Gap=     0.207 Goal=   None    Shift=    0.000
 RMSDP=1.38D-07 MaxDP=9.20D-06 DE=-4.42D-08 OVMax= 4.62D-05

 Cycle  12  Pass 1  IDiag  1:
 RMSU=  8.86D-08    CP:  9.60D-01  1.22D+00  6.93D-01  7.04D-01  7.59D-01
                    CP:  8.65D-01  9.78D-01  9.80D-01  1.02D+00  1.13D+00
                    CP:  9.23D-01
 E= -4639.14542455287     Delta-E=       -0.000000010357 Rises=F Damp=F
 DIIS: error= 4.90D-07 at cycle  12 NSaved=  12.
 NSaved=12 IEnMin=12 EnMin= -4639.14542455287     IErMin=12 ErrMin= 4.90D-07
 ErrMax= 4.90D-07  0.00D+00 EMaxC= 1.00D-01 BMatC= 8.69D-10 BMatP= 5.53D-09
 IDIUse=1 WtCom= 1.00D+00 WtEn= 0.00D+00
 Coeff-Com: -0.758D-05 0.780D-05 0.164D-03 0.439D-03 0.915D-03 0.260D-03
 Coeff-Com: -0.480D-02-0.250D-01-0.447D-01 0.457D-01 0.337D+00 0.690D+00
 Coeff:     -0.758D-05 0.780D-05 0.164D-03 0.439D-03 0.915D-03 0.260D-03
 Coeff:     -0.480D-02-0.250D-01-0.447D-01 0.457D-01 0.337D+00 0.690D+00
 Gap=     0.207 Goal=   None    Shift=    0.000
 RMSDP=5.42D-08 MaxDP=4.03D-06 DE=-1.04D-08 OVMax= 2.22D-05

 Cycle  13  Pass 1  IDiag  1:
 RMSU=  3.40D-08    CP:  9.60D-01  1.22D+00  6.93D-01  7.04D-01  7.59D-01
                    CP:  8.65D-01  9.79D-01  9.83D-01  1.03D+00  1.17D+00
                    CP:  1.06D+00  9.20D-01
 E= -4639.14542455432     Delta-E=       -0.000000001448 Rises=F Damp=F
 DIIS: error= 1.66D-07 at cycle  13 NSaved=  13.
 NSaved=13 IEnMin=13 EnMin= -4639.14542455432     IErMin=13 ErrMin= 1.66D-07
 ErrMax= 1.66D-07  0.00D+00 EMaxC= 1.00D-01 BMatC= 1.43D-10 BMatP= 8.69D-10
 IDIUse=1 WtCom= 1.00D+00 WtEn= 0.00D+00
 Coeff-Com: -0.314D-07-0.421D-05 0.236D-04 0.786D-04 0.306D-03 0.573D-03
 Coeff-Com:  0.731D-03-0.326D-02-0.160D-01-0.325D-01 0.942D-02 0.293D+00
 Coeff-Com:  0.747D+00
 Coeff:     -0.314D-07-0.421D-05 0.236D-04 0.786D-04 0.306D-03 0.573D-03
 Coeff:      0.731D-03-0.326D-02-0.160D-01-0.325D-01 0.942D-02 0.293D+00
 Coeff:      0.747D+00
 Gap=     0.207 Goal=   None    Shift=    0.000
 RMSDP=2.29D-08 MaxDP=1.57D-06 DE=-1.45D-09 OVMax= 8.62D-06

 Cycle  14  Pass 1  IDiag  1:
 RMSU=  1.21D-08    CP:  9.60D-01  1.22D+00  6.93D-01  7.04D-01  7.59D-01
                    CP:  8.65D-01  9.79D-01  9.84D-01  1.03D+00  1.18D+00
                    CP:  1.11D+00  1.06D+00  9.53D-01
 E= -4639.14542455473     Delta-E=       -0.000000000407 Rises=F Damp=F
 DIIS: error= 7.16D-08 at cycle  14 NSaved=  14.
 NSaved=14 IEnMin=14 EnMin= -4639.14542455473     IErMin=14 ErrMin= 7.16D-08
 ErrMax= 7.16D-08  0.00D+00 EMaxC= 1.00D-01 BMatC= 2.34D-11 BMatP= 1.43D-10
 IDIUse=1 WtCom= 1.00D+00 WtEn= 0.00D+00
 Coeff-Com:  0.130D-05-0.286D-05-0.208D-04-0.503D-04-0.344D-04 0.168D-03
 Coeff-Com:  0.126D-02 0.329D-02 0.102D-02-0.209D-01-0.626D-01 0.153D-02
 Coeff-Com:  0.314D+00 0.762D+00
 Coeff:      0.130D-05-0.286D-05-0.208D-04-0.503D-04-0.344D-04 0.168D-03
 Coeff:      0.126D-02 0.329D-02 0.102D-02-0.209D-01-0.626D-01 0.153D-02
 Coeff:      0.314D+00 0.762D+00
 Gap=     0.207 Goal=   None    Shift=    0.000
 RMSDP=9.68D-09 MaxDP=7.33D-07 DE=-4.07D-10 OVMax= 3.85D-06

 Error on total polarization charges =  0.05949
 SCF Done:  E(RM062X) =  -4639.14542455     A.U. after   14 cycles
            NFock= 14  Conv=0.97D-08     -V/T= 2.0492
 KE= 4.421400414762D+03 PE=-4.213332156941D+04 EE= 1.740549083450D+04
 SMD-CDS (non-electrostatic) energy       (kcal/mol) =     -13.85
 (included in total energy above)
 Leave Link  502 at Tue Jun 11 18:07:10 2024, MaxMem=  8321499136 cpu:           23159.7 elap:             739.0
 (Enter /opt/packages/gaussian/g16RevC.01/g16/l508.exe)
 QCSCF skips out because SCF is already converged.
 Leave Link  508 at Tue Jun 11 18:07:11 2024, MaxMem=  8321499136 cpu:               0.1 elap:               0.0
 (Enter /opt/packages/gaussian/g16RevC.01/g16/l801.exe)
 DoSCS=F DFT=T ScalE2(SS,OS)=  1.000000  1.000000
 Range of M.O.s used for correlation:     1  1369
 NBasis=  1369 NAE=   290 NBE=   290 NFC=     0 NFV=     0
 NROrb=   1369 NOA=   290 NOB=   290 NVA=  1079 NVB=  1079

 **** Warning!!: The largest alpha MO coefficient is  0.10780483D+02

 Leave Link  801 at Tue Jun 11 18:07:11 2024, MaxMem=  8321499136 cpu:               1.5 elap:               0.1
 (Enter /opt/packages/gaussian/g16RevC.01/g16/l1101.exe)
 Using compressed storage, NAtomX=   117.
 Will process    118 centers per pass.
 PrsmSu:  requested number of processors reduced to:  21 ShMem   1 Linda.
   1 Symmetry operations used in ECPInt.
 ECPInt:  NShTT=  185745 NPrTT=  697989 LenC2=  130395 LenP2D=  289288.
 LDataN:  DoStor=T MaxTD1= 8 Len=  415
 Number of processors reduced to   4 by ecpmxn.
 R6Disp: Adding Grimme-D3 dispersion energy 1st derivatives to the gradient.
 Leave Link 1101 at Tue Jun 11 18:07:34 2024, MaxMem=  8321499136 cpu:             520.9 elap:              22.6
 (Enter /opt/packages/gaussian/g16RevC.01/g16/l1102.exe)
 Symmetrizing basis deriv contribution to polar:
 IMax=3 JMax=2 DiffMx= 0.00D+00
 Leave Link 1102 at Tue Jun 11 18:07:38 2024, MaxMem=  8321499136 cpu:               8.8 elap:               0.4
 (Enter /opt/packages/gaussian/g16RevC.01/g16/l1110.exe)
 Forming Gx(P) for the SCF density, NAtomX=   117.
 Integral derivatives from FoFJK, PRISM(SPDF).
 Do as many integral derivatives as possible in FoFJK.
 G2DrvN: MDV=    8321486949.
 G2DrvN: will do    59 centers at a time, making    2 passes.
 G2DrvN:  IPasSy=1 do centers    0 through   58.
 Calling FoFCou, ICntrl=  3107 FMM=T I1Cent=   0 AccDes= 0.00D+00.
 FoFJK:  IHMeth= 1 ICntrl=    3107 DoSepK=F KAlg= 0 I1Cent=           0 FoldK=F
 IRaf=         0 NMat=       1 IRICut=       1 DoRegI=T DoRafI=F ISym2E= 0 IDoP0=0 IntGTp=1.
 FoFCou: FMM=T IPFlag=           0 FMFlag=      100000 FMFlg1=        2001
         NFxFlg=           0 DoJE=F BraDBF=F KetDBF=F FulRan=T
         wScrn=  0.000000 ICntrl=      3107 IOpCl=  0 I1Cent=           0 NGrid=           0
         NMat0=    1 NMatS0=      1 NMatT0=    0 NMatD0=    1 NMtDS0=    0 NMtDT0=    0
 Symmetry not used in FoFCou.
 FMM levels:  10  Number of levels for PrismC:   9
 Defaulting to unpruned grid for atomic number  53.
 Defaulting to unpruned grid for atomic number  53.
 Defaulting to unpruned grid for atomic number  53.
 Defaulting to unpruned grid for atomic number  53.
 Defaulting to unpruned grid for atomic number  53.
 Defaulting to unpruned grid for atomic number  53.
 Defaulting to unpruned grid for atomic number  53.
 Defaulting to unpruned grid for atomic number  53.
 Defaulting to unpruned grid for atomic number  53.
 Defaulting to unpruned grid for atomic number  53.
 Defaulting to unpruned grid for atomic number  53.
 Defaulting to unpruned grid for atomic number  53.
 Defaulting to unpruned grid for atomic number  53.
 Defaulting to unpruned grid for atomic number  53.
 Defaulting to unpruned grid for atomic number  53.
 Defaulting to unpruned grid for atomic number  53.
 Defaulting to unpruned grid for atomic number  53.
 Defaulting to unpruned grid for atomic number  53.
 Defaulting to unpruned grid for atomic number  53.
 Defaulting to unpruned grid for atomic number  53.
 Defaulting to unpruned grid for atomic number  53.
 Defaulting to unpruned grid for atomic number  53.
 Defaulting to unpruned grid for atomic number  53.
 Defaulting to unpruned grid for atomic number  53.
 Defaulting to unpruned grid for atomic number  53.
 Defaulting to unpruned grid for atomic number  53.
 Defaulting to unpruned grid for atomic number  53.
 Defaulting to unpruned grid for atomic number  53.
 Defaulting to unpruned grid for atomic number  53.
 Defaulting to unpruned grid for atomic number  53.
 Defaulting to unpruned grid for atomic number  53.
 Defaulting to unpruned grid for atomic number  53.
 G2DrvN:  IPasSy=1 do centers   59 through  117.
 Calling FoFCou, ICntrl=  3107 FMM=T I1Cent=   0 AccDes= 0.00D+00.
 NEqPCM:  Using equilibrium solvation (IEInf=0, Eps=   5.5205, EpsInf=   1.9160)
 G2PCM: DoFxE=T DoFxN=T DoGrad=T DoDP/DQ/DG/TGxP=FFFF NFrqRd=   0 IEInf=0 SqF1=F DoCFld=F IF1Alg=4.
 GePol: Maximum number of non-zero 1st derivatives   =     305
 End of G2Drv F.D. properties file   721 does not exist.
 End of G2Drv F.D. properties file   722 does not exist.
 End of G2Drv F.D. properties file   788 does not exist.
 Leave Link 1110 at Tue Jun 11 18:56:49 2024, MaxMem=  8321499136 cpu:           93793.0 elap:            2950.0
 (Enter /opt/packages/gaussian/g16RevC.01/g16/l1002.exe)
 Minotr:  Closed shell wavefunction.
          IDoAtm=11111111111111111111111111111111111111111111111111
          IDoAtm=11111111111111111111111111111111111111111111111111
          IDoAtm=11111111111111111
 NEqPCM:  Using equilibrium solvation (IEInf=0, Eps=   5.5205, EpsInf=   1.9160)
          Direct CPHF calculation.
          Differentiating once with respect to electric field.
                with respect to dipole field.
          Differentiating once with respect to nuclear coordinates.
          Requested convergence is 1.0D-08 RMS, and 1.0D-07 maximum.
          Secondary convergence is 1.0D-12 RMS, and 1.0D-12 maximum.
          NewPWx=T KeepS1=F KeepF1=F KeepIn=T MapXYZ=F SortEE=F KeepMc=T.
 Defaulting to unpruned grid for atomic number  53.
        36022 words used for storage of precomputed grid.
 Two-electron integral symmetry not used.
          MDV=    8321499136 using IRadAn=       1.
          Solving linear equations simultaneously, MaxMat=      96.
 FoF2E skips out because all densities are zero.
 CalDSu exits because no D1Ps are significant.
 FoFJK:  IHMeth= 1 ICntrl=       0 DoSepK=F KAlg= 0 I1Cent=           0 FoldK=F
 IRaf= 680000000 NMat=      96 IRICut=       1 DoRegI=T DoRafI=F ISym2E= 0 IDoP0=3 IntGTp=3.
 Defaulting to unpruned grid for atomic number  53.
 Defaulting to unpruned grid for atomic number  53.
 Defaulting to unpruned grid for atomic number  53.
 Defaulting to unpruned grid for atomic number  53.
 Defaulting to unpruned grid for atomic number  53.
 Defaulting to unpruned grid for atomic number  53.
 Defaulting to unpruned grid for atomic number  53.
 Defaulting to unpruned grid for atomic number  53.
 Defaulting to unpruned grid for atomic number  53.
 Defaulting to unpruned grid for atomic number  53.
 Defaulting to unpruned grid for atomic number  53.
 Defaulting to unpruned grid for atomic number  53.
 Defaulting to unpruned grid for atomic number  53.
 Defaulting to unpruned grid for atomic number  53.
 Defaulting to unpruned grid for atomic number  53.
 Defaulting to unpruned grid for atomic number  53.
 Defaulting to unpruned grid for atomic number  53.
 Defaulting to unpruned grid for atomic number  53.
 Defaulting to unpruned grid for atomic number  53.
 Defaulting to unpruned grid for atomic number  53.
 Defaulting to unpruned grid for atomic number  53.
 Defaulting to unpruned grid for atomic number  53.
 Defaulting to unpruned grid for atomic number  53.
 Defaulting to unpruned grid for atomic number  53.
 Defaulting to unpruned grid for atomic number  53.
 Defaulting to unpruned grid for atomic number  53.
 Defaulting to unpruned grid for atomic number  53.
 Defaulting to unpruned grid for atomic number  53.
 Defaulting to unpruned grid for atomic number  53.
 Defaulting to unpruned grid for atomic number  53.
 Defaulting to unpruned grid for atomic number  53.
 Defaulting to unpruned grid for atomic number  53.
          There are   354 degrees of freedom in the 1st order CPHF.  IDoFFX=6 NUNeed=     3.
    354 vectors produced by pass  0 Test12= 3.13D-13 1.00D-09 XBig12= 6.32D+02 7.46D+00.
 AX will form    96 AO Fock derivatives at one time.
    354 vectors produced by pass  1 Test12= 3.13D-13 1.00D-09 XBig12= 6.07D+01 6.01D-01.
    354 vectors produced by pass  2 Test12= 3.13D-13 1.00D-09 XBig12= 1.54D+00 1.39D-01.
    352 vectors produced by pass  3 Test12= 3.13D-13 1.00D-09 XBig12= 2.68D-02 1.30D-02.
    351 vectors produced by pass  4 Test12= 3.13D-13 1.00D-09 XBig12= 2.24D-04 8.72D-04.
    351 vectors produced by pass  5 Test12= 3.13D-13 1.00D-09 XBig12= 1.25D-06 4.57D-05.
    268 vectors produced by pass  6 Test12= 3.13D-13 1.00D-09 XBig12= 5.19D-09 3.98D-06.
     41 vectors produced by pass  7 Test12= 3.13D-13 1.00D-09 XBig12= 1.83D-11 2.29D-07.
      3 vectors produced by pass  8 Test12= 3.13D-13 1.00D-09 XBig12= 7.13D-14 1.13D-08.
      3 vectors produced by pass  9 Test12= 3.13D-13 1.00D-09 XBig12= 7.80D-15 2.38D-09.
      3 vectors produced by pass 10 Test12= 3.13D-13 1.00D-09 XBig12= 1.28D-14 3.32D-09.
      3 vectors produced by pass 11 Test12= 3.13D-13 1.00D-09 XBig12= 9.80D-15 2.15D-09.
      3 vectors produced by pass 12 Test12= 3.13D-13 1.00D-09 XBig12= 3.15D-14 4.63D-09.
      3 vectors produced by pass 13 Test12= 3.13D-13 1.00D-09 XBig12= 2.25D-14 3.66D-09.
      3 vectors produced by pass 14 Test12= 3.13D-13 1.00D-09 XBig12= 1.66D-14 4.28D-09.
      2 vectors produced by pass 15 Test12= 3.13D-13 1.00D-09 XBig12= 6.27D-15 1.96D-09.
 InvSVY:  IOpt=1 It=  1 EMax= 2.84D-14
 Solved reduced A of dimension  2448 with   354 vectors.
 FullF1:  Do perturbations      1 to       3.
 Isotropic polarizability for W=    0.000000     1053.35 Bohr**3.
 End of Minotr F.D. properties file   721 does not exist.
 End of Minotr F.D. properties file   722 does not exist.
 End of Minotr F.D. properties file   788 does not exist.
 Leave Link 1002 at Tue Jun 11 21:43:16 2024, MaxMem=  8321499136 cpu:          314925.1 elap:            9983.6
 (Enter /opt/packages/gaussian/g16RevC.01/g16/l601.exe)
 Copying SCF densities to generalized density rwf, IOpCl= 0 IROHF=0.
 Hyperfine terms turned off by default for NAtoms > 100.

 **********************************************************************

            Population analysis using the SCF Density.

 **********************************************************************

 Alpha  occ. eigenvalues --  -90.09330 -90.09149 -25.28597 -25.28297 -25.28123
 Alpha  occ. eigenvalues --  -25.28106 -25.27797 -25.27673 -25.26855 -19.63743
 Alpha  occ. eigenvalues --  -19.61535 -19.61265 -19.61240 -19.61014 -14.82387
 Alpha  occ. eigenvalues --  -14.77349 -14.75805 -10.80895 -10.80492 -10.66725
 Alpha  occ. eigenvalues --  -10.64993 -10.64699 -10.60482 -10.60420 -10.60367
 Alpha  occ. eigenvalues --  -10.60152 -10.60118 -10.60094 -10.60009 -10.59797
 Alpha  occ. eigenvalues --  -10.59775 -10.59718 -10.59673 -10.59622 -10.59516
 Alpha  occ. eigenvalues --  -10.59152 -10.58804 -10.58712 -10.58267 -10.58211
 Alpha  occ. eigenvalues --  -10.58123 -10.58091 -10.57937 -10.57754 -10.57753
 Alpha  occ. eigenvalues --  -10.57722 -10.57653 -10.57576 -10.57508 -10.57500
 Alpha  occ. eigenvalues --  -10.57343 -10.57097 -10.56983 -10.56951 -10.56924
 Alpha  occ. eigenvalues --  -10.56910 -10.56621 -10.56516 -10.56513 -10.56510
 Alpha  occ. eigenvalues --  -10.56488 -10.56456 -10.56424 -10.56421 -10.56408
 Alpha  occ. eigenvalues --  -10.56381 -10.56364 -10.56360 -10.56302 -10.56043
 Alpha  occ. eigenvalues --  -10.55848 -10.55365 -10.55163 -10.55057 -10.55020
 Alpha  occ. eigenvalues --  -10.54802 -10.54640  -8.42077  -8.41903  -7.09401
 Alpha  occ. eigenvalues --   -6.34274  -6.34191  -6.34152  -6.34111  -6.34016
 Alpha  occ. eigenvalues --   -6.33966  -5.08841  -5.07671  -5.07640  -2.05670
 Alpha  occ. eigenvalues --   -2.05215  -2.05181  -2.04209  -2.04206  -1.44931
 Alpha  occ. eigenvalues --   -1.44560  -1.35786  -1.35112  -1.34752  -1.34689
 Alpha  occ. eigenvalues --   -1.34279  -1.23820  -1.22276  -1.16306  -1.11222
 Alpha  occ. eigenvalues --   -1.10573  -1.10430  -1.04887  -1.00840  -0.99233
 Alpha  occ. eigenvalues --   -0.98572  -0.98425  -0.97968  -0.97499  -0.94350
 Alpha  occ. eigenvalues --   -0.94101  -0.93829  -0.93289  -0.91442  -0.89781
 Alpha  occ. eigenvalues --   -0.89062  -0.88586  -0.87974  -0.87824  -0.87486
 Alpha  occ. eigenvalues --   -0.86898  -0.86448  -0.85740  -0.85583  -0.84490
[...]
 -0.00001018,-0.00000135,-0.00001655,0.00000318,-0.00027807,0.00029310,
 -0.00007773,-0.00003137,-0.00010058,0.00010857,0.00001252,0.00008282,-
 0.00002680,-0.00006017,-0.00000481,0.00002433,0.00001799,-0.00001199,0
 .00001833,0.00004622,0.00000101,-0.00000739,-0.00001355,-0.00001195,-0
 .00001780,-0.00000986,-0.00000985,-0.00001011,-0.00001274,-0.00000128,
 0.00000010,0.00002259,0.00001441,0.00000954,0.00000562,0.00000076,0.00
 000339,0.00001043,-0.00000454,-0.00000031,0.00000704,0.00001070,0.0000
 0535,0.00000151,-0.00000033,-0.00000242,-0.00000306,-0.00000188,0.0000
 0197,0.00000254,0.00000009,-0.00000258,-0.00000249,0.00000374,-0.00000
 084,0.00000114,-0.00000056,-0.00000340,-0.00066908,0.00008777,-0.00018
 149,0.00019138,-0.00005148,-0.00004869,0.00042540,-0.00001483,0.000009
 37,-0.00020434,0.00004677,-0.00022263,0.00003881,-0.00000465,0.0000932
 9,0.00009481,0.00004201,0.00008332,0.00024939,0.00006070,0.00025749,0.
 00019091,-0.00032724,-0.00003936,-0.00023284,0.00020609,0.00048326,-0.
 00000010,-0.00000265,-0.00000662,0.00001813,0.00000452,0.00000666,-0.0
 0001663,-0.00001219,-0.00001050,0.00000224,0.00000178,0.00000501,0.000
 01023,0.00000683,0.00000636,0.00000147,0.00000208,0.00000534,-0.000004
 18,-0.00000478,-0.00000254,-0.00000092,-0.00000136,-0.00000396,0.00000
 627,0.00000298,-0.00000115,0.00000006,0.00000050,-0.00000037,0.0000010
 5,0.00000130,0.00000104,0.00000076,0.00000043,-0.00000053,-0.00229931,
 0.00765964,-0.00487723,0.00156285,-0.00143035,-0.00170985,0.03698325,-
 0.02026591,-0.02900101,0.00034110,0.00001882,-0.00056085,-0.00001321,0
 .00036251,-0.00071056,0.00104744,-0.00090806,-0.00116385,0.00034547,-0
 .00043584,-0.00008636,-0.00001051,0.00006081,-0.00007071,0.00063081,0.
 00147109,-0.00305647,-0.00001752,0.00015303,-0.00012839,-0.00002544,-0
 .00000386,-0.00001189,0.00001267,-0.00000222,0.00000949,0.00000812,0.0
 0000245,0.00000033,0.00000524,0.00000206,0.00000328,0.09250261,-0.0467
 2306,-0.17428065,-0.00422484,0.00452283,0.02212766,-0.13438495,0.08977
 878,0.19542567,0.00006617,0.00004680,-0.00003264,-0.00006600,-0.000087
 94,0.00004244,0.00010179,0.00010319,-0.00019254,-0.00013838,-0.0000668
 3,0.00015316,0.00014888,0.00005131,-0.00018363,-0.00005123,-0.00000924
 ,0.00002824,0.00000066,0.00001351,-0.00001594,-0.00001751,-0.00000374,
 0.00000803,0.00001273,-0.00000620,-0.00001699,-0.00000641,-0.00000301,
 -0.00000293,-0.00000830,-0.00000121,-0.00000149,-0.00000246,-0.0000004
 9,0.00000093,-0.00000197,-0.00000077,-0.00000018,-0.00000138,0.0000000
 7,-0.00000075,0.00000077,0.00000186,-0.00000105,0.00002973,-0.00000508
 ,0.00000552,-0.00000228,-0.00000243,0.00000197,0.00000096,0.00000267,0
 .00000134,-0.00000097,0.00000257,-0.00000544,-0.00000058,-0.00000002,0
 .00000244,0.00000074,-0.00000140,0.00000062,-0.00000510,0.00000344,0.0
 0000305,0.00000773,-0.00000050,-0.00000069,-0.00000197,-0.00000172,-0.
 00000220,-0.00000078,-0.00000137,0.00000155,0.00000954,-0.00000286,-0.
 00000430,0.00000050,0.,0.00000218,-0.00003409,-0.00000235,0.00000838,-
 0.00009312,-0.00006157,0.00015685,0.00014493,-0.00003241,-0.00000766,-
 0.00001302,0.00008103,-0.00014343,0.00006805,0.00006859,0.00002617,-0.
 00001985,-0.00000600,-0.00002376,0.00004138,-0.00000124,-0.00001166,0.
 00001703,0.00002019,-0.00002241,0.00000702,0.00000362,0.00000689,0.000
 00090,0.00000397,-0.00000407,-0.00000859,0.00001663,-0.00000886,-0.000
 01027,0.00000133,0.00000757,0.00000134,0.00000050,-0.00000076,0.000000
 86,-0.00000345,0.00000445,0.00000055,-0.00000004,-0.00000082,-0.000001
 78,-0.00000388,0.00000736,0.00000133,-0.00000075,-0.00000190,-0.000043
 01,-0.00004715,0.00013700,-0.00001465,-0.00001046,0.00002371,0.0000130
 9,0.00000854,0.00001757,0.00003019,0.00002604,0.00000844,-0.00004737,0
 .00002391,0.00000413,0.00003535,0.00004158,-0.00002914,-0.00001986,-0.
 00003984,0.00002530,0.00009860,-0.00000880,0.00003546,-0.00007589,0.00
 005735,0.00000305,0.00002757,-0.00000510,-0.00000553,-0.00000016,0.000
 00249,-0.00000259,-0.00000453,0.00000103,-0.00000306,-0.00003484,0.000
 04320,-0.00002748,-0.00026766,0.00002325,0.00002098,0.00000189,0.00000
 447,-0.00000976,-0.00000326,0.00000967,-0.00000704,0.00021242,-0.00024
 966,0.00008497,0.00001685,0.00012513,-0.00004974,-0.00004037,0.0000172
 4,-0.00005926,0.00002129,0.00000951,-0.00001731,-0.00001701,0.00001363
 ,0.00000655,-0.00002483,-0.00000768,-0.00000532,0.00001437,0.00001483,
 0.00001355,0.00000843,0.00000259,0.00000344,-0.00000294,0.00000538,0.0
 0000887,-0.00001597,-0.00000674,-0.00000364,0.00000272,0.00000219,0.00
 000114,-0.00000227,0.00000048,0.00000011,-0.00000583,-0.00000646,-0.00
 000773,-0.00000057,0.00000122,0.00000171,-0.00000095,0.00000403,0.0000
 0342,-0.00000155,0.00000059,0.00000130,-0.00000016,0.00000186,0.000002
 67,-0.00000147,0.00000100,0.00000157,0.00040990,-0.00020152,-0.0000571
 6,-0.00012242,0.00007426,0.00009022,-0.00034220,0.00003302,0.00005086,
 0.00020456,-0.00009552,0.00001083,-0.00007394,0.00002154,0.00000876,-0
 .00007155,0.00000468,-0.00000991,-0.00015390,0.00004594,-0.00005938,-0
 .00014117,-0.00079377,0.00089436,-0.00225619,0.00057792,0.00138832,0.0
 0000044,-0.00000140,0.00000094,-0.00000870,-0.00000089,0.00000027,0.00
 000513,0.00000411,0.00000251,-0.00000213,0.00000114,0.00000070,-0.0000
 0014,0.00000045,-0.00000277,-0.00000217,-0.00000072,-0.00000147,-0.000
 00104,0.00000241,-0.00000019,0.00000153,-0.00000195,0.00000136,-0.0000
 0211,0.00000040,0.00000111,0.00000007,-0.00000068,0.00000026,0.0000020
 2,-0.00000044,0.00000072,0.00000012,-0.00000089,0.00000007,0.00058523,
 0.00100404,-0.00107906,-0.00010442,-0.00006757,-0.00025140,0.00838781,
 -0.01239794,-0.00014921,0.00010229,-0.00016074,-0.00005594,-0.00004683
 ,-0.00001657,-0.00001694,-0.00186269,-0.00022562,0.00222829,0.00059607
 ,-0.00078487,0.00016306,0.00000688,0.00000764,0.00003404,0.00007673,-0
 .00005421,0.00006061,-0.00000221,-0.00005931,0.00025408,0.00001720,-0.
 00000931,-0.00001101,-0.00000732,0.00000414,0.00000011,-0.00000753,0.0
 0000011,0.00000522,-0.00000364,0.00000515,0.00000294,-0.09158659,-0.05
 945867,0.00376662,-0.03909155,-0.05494060,-0.02510506,0.01210735,0.032
 98522,0.00746582,0.11335197,0.00001283,-0.00001828,0.00004562,-0.00009
 707,0.00013952,0.00010558,0.00014406,0.00006328,-0.00014264,-0.0000773
 1,-0.00002733,0.00012783,0.00017731,0.00001706,-0.00011173,-0.00012525
 ,0.00002116,-0.00007188,0.00002295,0.00001084,-0.00003347,-0.00002265,
 -0.00000187,0.00001010,0.00001373,-0.00000986,-0.00002558,-0.00000652,
 0.00000202,0.00000011,-0.00001650,0.00000367,-0.00000396,-0.00000060,0
 .00000008,-0.00000288,-0.00000311,-0.00000271,0.00000103,-0.00000164,-
 0.00000157,0.00000010,0.00000197,-0.00000087,0.00000111,0.00005633,-0.
 00002655,-0.00000136,-0.00000223,-0.00000601,-0.00000337,0.00000234,0.
 00000760,0.00000078,-0.00000386,0.00000785,0.00000414,-0.00000004,0.00
 000526,0.00000066,0.00000440,-0.00000111,0.00000097,-0.00000559,-0.000
 00202,-0.00000444,0.00000110,-0.00000987,0.00000248,-0.00000276,0.0000
 0100,0.00000105,0.00000145,-0.00000173,0.00000115,0.00000115,-0.000003
 10,0.00000240,0.00000135,-0.00000221,0.00000306,-0.00005390,0.00002473
 ,0.00001320,-0.00002225,-0.00006212,0.00019127,0.00003686,-0.00005146,
 -0.00002670,0.00001517,0.00006198,-0.00014793,0.00006988,0.00005050,0.
 00003722,0.00003641,-0.00002154,-0.00002629,0.00003972,-0.00000642,-0.
 00003447,0.00005141,0.00001250,-0.00004702,0.00000209,0.00000345,0.000
 00584,0.00001295,0.00000306,0.00000250,0.00002246,0.00000374,0.0000122
 8,-0.00000607,0.00000222,0.00001097,-0.00000081,-0.00000281,0.00000055
 ,0.00000212,-0.00000318,-0.00000907,0.00000592,0.00000998,0.00000336,-
 0.00000718,-0.00000270,0.00000702,-0.00000006,0.00000445,-0.00000472,-
 0.00007524,-0.00000633,0.00007887,-0.00007940,-0.00000345,0.00003581,0
 .00000241,-0.00001654,-0.00001013,0.00001025,-0.00031252,-0.00008723,-
 0.00004790,0.00002148,0.00000201,0.00004590,0.00004625,-0.00002479,-0.
 00002006,-0.00003609,0.00004443,0.00009114,0.00002053,-0.00016813,-0.0
 0010435,0.00002361,0.00000449,0.00003193,-0.00000508,0.00000155,0.0000
 0815,-0.00000577,-0.00000066,0.00000297,-0.00000538,0.00000197,0.00003
 957,0.00009087,-0.00006251,-0.00055506,0.00008636,0.00013579,0.0000068
 4,0.00005485,-0.00001287,-0.00000631,0.00000896,-0.00000156,0.00013398
 ,0.00010205,-0.00003251,0.00006632,-0.00000742,-0.00002577,-0.00017019
 ,0.00057460,0.00020464,-0.00004554,0.00001330,0.00002249,0.00000371,0.
 00001751,-0.00000798,0.00003029,-0.00000877,-0.00000775,0.00000400,0.0
 0000299,-0.00000604,-0.00000379,-0.00000972,-0.00000603,-0.00001570,0.
 00000961,0.00000540,0.00000942,0.00001080,0.00000801,0.00000813,0.0000
 0555,0.00000122,0.00000637,-0.00000195,-0.00000543,-0.00000003,-0.0000
 0058,0.00000302,0.00000162,-0.00000169,0.00000211,-0.00000398,0.000003
 89,0.00000264,0.00000203,-0.00000156,0.00000054,-0.00000322,0.00000178
 ,0.00000492,0.00000022,-0.00000233,-0.00000030,-0.00000498,-0.00042207
 ,0.00001676,0.00001764,0.00010012,-0.00001591,-0.00001366,0.00022880,-
 0.00000127,-0.00003273,-0.00025789,0.00007545,0.00005590,0.00008888,-0
 .00002280,0.00002130,0.00008625,0.00001021,0.00000817,0.00031454,0.000
 02709,-0.00004591,0.00104313,-0.00053090,-0.00054169,-0.00015449,-0.00
 053544,0.00000139,-0.00000324,-0.00000722,0.00000900,0.00000453,0.0000
 0437,-0.00001070,-0.00000844,-0.00000650,-0.00000087,0.00000432,0.0000
 0049,0.00000421,0.00000798,0.00000398,0.00000032,0.00000336,0.00000268
 ,-0.00000450,0.00000070,-0.00000272,0.00000090,-0.00000532,0.00000009,
 0.00000376,0.00000445,-0.00000224,0.00000138,-0.00000151,0.00000061,0.
 00000187,-0.00000164,0.00000218,0.00000155,-0.00000147,0.00000079,0.00
 301218,-0.00242413,-0.00038169,0.00075848,0.00020657,0.00123823,-0.012
 18982,-0.03869491,0.00375178,-0.00025170,-0.00037769,0.00054399,-0.000
 12967,-0.00009746,0.00022347,-0.00341964,0.00058326,0.00375603,0.00138
 046,0.00016226,0.00134996,-0.00022005,-0.00008428,-0.00000974,-0.00077
 862,-0.00001889,-0.00074591,0.00000848,-0.00023371,0.00051258,0.000000
 82,-0.00003015,0.00000818,-0.00000606,0.00000924,-0.00000579,0.0000021
 5,0.00000559,-0.00000250,0.00000058,0.00001528,-0.00000028,-0.06144969
 ,-0.27628632,0.00785375,-0.03922307,-0.01830792,-0.02224194,0.01905090
 ,-0.06542744,-0.03405999,0.09432693,0.39910925,0.00000473,0.00001683,-
 0.00001637,-0.00000641,0.00000599,-0.00001867,0.00002641,0.00005479,-0
 .00007845,-0.00008575,-0.00002973,0.00006630,0.00002469,0.00000495,-0.
 00010559,0.00002838,-0.00001144,0.00006401,-0.00001350,-0.00001545,-0.
 00000224,0.00000305,0.00000165,0.00000861,-0.00000204,-0.00000538,-0.0
 0000601,0.00000197,0.00000397,0.00000704,-0.00000531,0.00000055,0.0000
 0506,0.00000349,-0.00000200,-0.00000191,-0.00000066,0.00000055,-0.0000
 0022,0.00000069,0.00000044,-0.00000052,0.00000181,0.00000242,-0.000000
 80,0.00002621,-0.00001159,-0.00001842,0.,-0.00000342,-0.00000453,0.000
 00274,0.00000265,0.00000187,0.00000191,0.00000349,0.00000333,0.0000003
 4,0.00000120,0.00000130,0.00000041,0.00000154,-0.00000098,0.00000126,-
 0.00000697,-0.00000145,-0.00000612,-0.00000257,-0.00000264,0.00000207,
 0.00000107,0.00000416,-0.00000077,0.00000084,-0.00000050,-0.00000841,0
 .00000299,0.00000088,-0.00000278,0.00000078,0.00000072,-0.00002320,0.0
 0000634,0.00001561,-0.00008663,-0.00000137,0.00010697,0.00007232,-0.00
 002972,-0.00006510,-0.00002155,-0.00000402,-0.00009679,0.00007449,0.00
 006635,0.00002319,-0.00004931,0.00000144,-0.00001664,0.00000746,-0.000
 00469,0.00001599,-0.00002415,-0.00001196,0.00001579,-0.00000259,0.0000
 0401,0.00001170,-0.00001044,-0.00001369,-0.00001025,-0.00003201,-0.000
 00275,-0.00002302,-0.00000611,0.00000149,0.00000339,0.00000203,-0.0000
 0068,-0.00000279,0.00000035,-0.00000386,0.00001168,-0.00000057,0.00000
 352,-0.00000221,0.00000410,-0.00000187,0.00000086,0.00000043,0.0000033
 7,0.00000369,0.00001473,-0.00001568,0.00007539,0.00005304,0.00001378,-
 0.00000018,0.00001897,0.00001014,0.00001309,0.00001038,-0.00010915,-0.
 00003702,0.00006345,-0.00002632,-0.00000094,-0.00003261,-0.00005449,0.
 00003621,0.00003793,0.00003707,-0.00004584,-0.00007188,0.00004967,0.00
 000562,0.00007300,-0.00006016,0.00002259,-0.00002754,0.00001017,0.0000
 1138,0.00000018,-0.00000548,-0.00000099,0.00000657,-0.00000518,-0.0000
 0077,0.00004410,-0.00007769,0.00001864,0.00024738,-0.00012238,0.000011
 65,-0.00001201,-0.00000824,-0.00001273,0.,-0.00001429,0.00000057,-0.00
 022976,0.00025525,-0.00012142,-0.00000600,-0.00012021,0.00009850,-0.00
 001838,0.00000352,-0.00007441,-0.00004104,-0.00000980,0.00001691,0.000
 00801,-0.00000966,0.00002150,0.00003049,-0.00000015,-0.00000539,-0.000
 00467,-0.00000238,-0.00000966,-0.00000592,-0.00000636,-0.00000760,-0.0
 0000965,-0.00000085,0.00000256,0.00001266,0.00000902,0.00000648,0.0000
 0497,0.00000082,0.00000302,0.00000690,-0.00000334,0.00000022,0.0000038
 4,0.00000749,0.00000220,0.00000088,0.00000038,-0.00000127,-0.00000254,
 -0.00000091,0.00000217,0.00000141,0.00000034,-0.00000189,-0.00000160,0
 .00000318,-0.00000066,0.00000056,0.00000008,-0.00000221,-0.00054617,0.
 00008416,-0.00022432,0.00013813,-0.00003951,-0.00001915,0.00042603,0.0
 0001508,0.00001210,-0.00006677,0.00004358,-0.00022641,-0.00002047,-0.0
 0000959,0.00010696,0.00004707,0.00002371,0.00007272,0.00016825,0.00005
 168,0.00023862,0.00005342,0.00033122,-0.00023399,0.00202062,0.00002445
 ,-0.00098343,0.00000028,-0.00000308,-0.00000463,0.00001034,0.00000304,
 0.00000530,-0.00001006,-0.00000687,-0.00000648,0.00000107,0.00000125,0
 .00000407,0.00000795,0.00000464,0.00000324,0.00000015,0.00000091,0.000
 00332,-0.00000332,-0.00000275,-0.00000140,-0.00000015,-0.00000103,-0.0
 0000262,0.00000377,0.00000192,-0.00000022,-0.00000009,0.00000040,-0.00
 000024,0.00000150,0.00000123,0.00000082,0.00000031,0.00000023,-0.00000
 044,-0.00108354,0.00015243,0.00037037,-0.00060096,-0.00030703,0.000414
 44,0.00783984,0.03378058,0.00470006,-0.00030780,0.00086689,-0.00020710
 ,0.00003456,-0.00003138,-0.00003734,0.00307128,-0.00079194,-0.00196944
 ,-0.00106658,0.00001222,-0.00163202,0.00007559,0.00006385,0.00001963,0
 .00028459,0.00047143,0.00032207,-0.00006359,0.00010440,-0.00035630,-0.
 00001318,-0.00000198,-0.00001393,0.00000754,-0.00000123,0.00000780,0.0
 0000305,0.00000101,0.00000250,0.00000267,0.00000116,0.00000351,0.00221
 037,0.00388666,-0.07982763,-0.02748052,-0.03254327,0.00009326,0.004368
 95,-0.04516177,-0.00234394,0.01040698,0.03919505,0.08178847\\-0.000000
 39,-0.00000027,0.00000033,0.00000051,-0.00000013,0.00000047,0.00000015
 ,0.00000019,-0.00000030,0.00000042,-0.00000003,0.00000127,-0.00000013,
 -0.00000091,0.00000143,-0.00000008,-0.00000002,0.00000022,-0.00000013,
 0.00000005,0.00000094,0.00000103,0.00000001,0.00000055,-0.00000063,-0.
 00000013,-0.00000030,0.00000094,-0.00000046,-0.00000031,0.00000008,-0.
 00000077,-0.00000044,0.00000032,-0.00000051,0.00000006,0.00000008,-0.0
 0000014,-0.00000038,0.00000067,-0.00000055,-0.00000034,0.00000083,-0.0
 0000058,0.00000042,0.00000069,-0.00000056,0.00000026,-0.00000019,-0.00
 000015,0.00000026,0.00000012,0.00000088,-0.00000071,0.00000069,0.00000
 036,-0.00000101,-0.00000038,0.00000043,0.00000005,-0.00000043,-0.00000
 031,-0.00000036,-0.00000057,-0.00000006,0.00000006,-0.00000023,-0.0000
 0022,0.00000009,-0.00000028,0.00000036,-0.00000074,-0.00000034,0.00000
 059,-0.00000076,-0.00000024,0.00000030,-0.00000051,-0.00000068,0.00000
 075,-0.00000035,0.00000072,-0.00000065,0.00000056,0.00000002,0.,0.0000
 0105,0.00000035,-0.00000053,0.00000080,0.00000040,-0.00000015,0.000001
 01,0.00000048,-0.00000036,0.00000093,-0.00000032,0.00000019,0.00000120
 ,-0.00000020,0.00000037,0.00000126,-0.00000099,0.00000065,0.00000074,-
 0.00000077,0.00000064,0.00000088,-0.00000027,0.00000069,0.00000097,-0.
 00000046,0.00000057,0.00000013,-0.00000044,0.00000017,0.00000008,-0.00
 000060,0.00000057,0.,-0.00000070,0.00000081,0.00000116,-0.00000059,0.0
 0000064,0.00000131,-0.00000089,0.00000074,0.00000059,-0.00000045,0.000
 00079,0.00000103,-0.00000065,0.00000165,-0.00000002,-0.00000059,0.0000
 0076,0.00000073,0.00000071,-0.00000062,0.00000039,0.00000035,-0.000000
 48,0.,0.00000114,-0.00000024,-0.00000101,0.00000001,-0.00000074,-0.000
 00023,-0.00000008,-0.00000015,-0.00000050,-0.00000012,-0.00000023,-0.0
 0000012,0.00000058,-0.00000056,-0.00000015,-0.00000026,0.00000036,-0.0
 0000073,0.00000015,-0.00000022,-0.00000105,0.00000028,-0.00000022,-0.0
 0000093,-0.00000011,0.00000057,-0.00000040,-0.00000009,-0.00000038,0.0
 0000042,0.00000037,-0.00000028,-0.00000003,0.00000031,-0.00000063,-0.0
 0000046,0.00000093,-0.00000014,-0.00000007,-0.00000039,-0.00000005,0.0
 0000017,0.00000030,-0.00000020,0.00000031,0.00000037,-0.00000019,-0.00
 000067,0.00000026,-0.00000048,-0.00000109,0.00000053,0.00000081,-0.000
 00023,-0.00000072,-0.00000010,-0.00000079,-0.00000032,0.00000031,-0.00
 000107,-0.00000076,-0.00000043,-0.00000151,-0.00000001,-0.00000018,-0.
 00000133,-0.00000027,0.00000032,-0.00000110,-0.00000128,0.00000045,-0.
 00000079,-0.00000027,0.00000031,-0.00000055,-0.00000046,0.00000008,-0.
 00000120,-0.00000015,0.00000051,-0.00000138,-0.00000079,0.00000037,-0.
 00000143,-0.00000031,0.00000080,-0.00000071,-0.00000077,0.00000061,-0.
 00000136,-0.00000027,0.00000007,0.00000067,-0.00000002,0.00000015,-0.0
 0000056,-0.00000027,0.00000018,0.00000037,0.00000059,0.00000010,0.0000
 0006,0.00000064,-0.00000039,-0.00000043,0.00000011,-0.00000042,-0.0000
 0042,-0.00000052,0.00000009,0.00000035,-0.00000075,0.00000105,0.000000
 48,0.00000056,-0.00000076,0.00000113,0.00000070,0.00000035,-0.00000047
 ,-0.00000044,-0.00000054,-0.00000111,0.00000060,-0.00000070,-0.0000020
 4,0.00000025,0.00000025,-0.00000029,0.00000075,-0.00000005,-0.00000043
 ,0.00000038,-0.00000091,-0.00000219,0.00000072,-0.00000085,-0.00000097
 ,0.00000037,-0.00000077,-0.00000064,0.00000027,-0.00000038,-0.00000037
 ,0.00000005,-0.00000036,-0.00000117,0.00000087,-0.00000085,-0.00000096
 ,0.00000058,-0.00000064,-0.00000113,0.00000019,0.00000014,0.00000059,-
 0.00000085,0.00000069,0.00000172,0.00000043,-0.00000014,0.00000212,-0.
 00000037,0.00000042,0.00000161,-0.00000013,0.00000034,0.00000080,-0.00
 000022,0.00000005,0.00000139,0.00000003,0.00000024,0.00000156,-0.00000
 041,0.00000044,0.00000172,0.00000013,-0.00000005,0.00000211,-0.0000001
 4,0.00000019,0.00000211,0.00000012,0.00000026,-0.00000171,-0.00000016,
 -0.00000022,-0.00000091,-0.00000023,0.00000015,-0.00000134,-0.00000009
 ,-0.00000058,-0.00000144,0.00000046,0.00000032,0.00000169,0.,-0.000000
 43,0.00000091,0.00000082,-0.00000046,0.00000127,0.00000024,-0.00000065
 ,0.00000118\\\@
 The archive entry for this job was punched.


 A ROPE OVER THE TOP OF A FENCE HAS THE SAME LENGTH ON EACH SIDE.
 WEIGHS 1/3 POUND PER FOOT.  ON ONE END HANGS A MONKEY HOLDING A
 BANANA, AND ON THE OTHER END A WEIGHT EQUAL TO THE WEIGHT
 OF THE MONKEY.  THE BANANA WEIGHS TWO OUNCES PER INCH.
 THE ROPE IS AS LONG AS THE AGE OF THE MONKEY, 
 AND THE WEIGHT OF THE MONKEY (IN OUNCES) IS AS MUCH
 AS THE AGE OF THE MONKEY'S MOTHER.  THE COMBINED AGES OF MONKEY
 AND MOTHER ARE THIRTY YEARS.  HALF THE WEIGHT OF THE MONKEY,
  PLUS THE WEIGHT OF THE BANANA, IS ONE FOURTH AS MUCH AS THE WEIGHT
 OF THE WEIGHT AND THE ROPE.
 THE MONKEY'S MOTHER IS HALF AS OLD AS THE MONKEY WILL BE
 WHEN IT IS 3 TIMES AS OLD AS ITS MOTHER WAS WHEN
 SHE WAS HALF AS OLD AS THE MONKEY WILL BE WHEN IT IS
 AS OLD AS ITS MOTHER WILL BE WHEN SHE IS 4 TIMES AS
 OLD AS THE MONKEY WAS WHEN IT WAS TWICE AS OLD AS 
 ITS MOTHER WAS WHEN SHE WAS ONE THIRD AS OLD AS THE
 MONKEY WAS WHEN IT WAS AS OLD AS ITS MOTHER WAS WHEN 
 SHE WAS 3 TIMES AS OLD AS THE MONKEY WAS WHEN IT WAS AS OLD AS ITS
 MOTHER WAS WHEN SHE WAS 3 TIMES AS OLD AS THE MONKEY 
 WAS WHEN IT WAS ONE FOURTH WAS OLD AS IT IS NOW.

 HOW LONG IS THE BANANA?
 Job cpu time:       5 days 15 hours 26 minutes 59.8 seconds.
 Elapsed time:       0 days  4 hours 17 minutes 11.8 seconds.
 File lengths (MBytes):  RWF=  23712 Int=      0 D2E=      0 Chk=    154 Scr=      1
 Normal termination of Gaussian 16 at Tue Jun 11 22:12:06 2024.
