 Entering Gaussian System, Link 0=g16
 Initial command:
 /opt/packages/gaussian/g16RevC.01/g16/l1.exe "/local/Gau-32086.inp" -scrdir="/local/"
 Entering Link 1 = /opt/packages/gaussian/g16RevC.01/g16/l1.exe PID=     32087.
  
 Copyright (c) 1988-2019, Gaussian, Inc.  All Rights Reserved.
  
 This is part of the Gaussian(R) 16 program.  It is based on
 the Gaussian(R) 09 system (copyright 2009, Gaussian, Inc.),
 the Gaussian(R) 03 system (copyright 2003, Gaussian, Inc.),
 the Gaussian(R) 98 system (copyright 1998, Gaussian, Inc.),
 the Gaussian(R) 94 system (copyright 1995, Gaussian, Inc.),
 the Gaussian 92(TM) system (copyright 1992, Gaussian, Inc.),
 the Gaussian 90(TM) system (copyright 1990, Gaussian, Inc.),
 the Gaussian 88(TM) system (copyright 1988, Gaussian, Inc.),
 the Gaussian 86(TM) system (copyright 1986, Carnegie Mellon
 University), and the Gaussian 82(TM) system (copyright 1983,
 Carnegie Mellon University). Gaussian is a federally registered
 trademark of Gaussian, Inc.
  
 This software contains proprietary and confidential information,
 including trade secrets, belonging to Gaussian, Inc.
  
 This software is provided under written license and may be
 used, copied, transmitted, or stored only in accord with that
 written license.
  
 The following legend is applicable only to US Government
 contracts under FAR:
  
                    RESTRICTED RIGHTS LEGEND
  
 Use, reproduction and disclosure by the US Government is
 subject to restrictions as set forth in subparagraphs (a)
 and (c) of the Commercial Computer Software - Restricted
 Rights clause in FAR 52.227-19.
  
 Gaussian, Inc.
 340 Quinnipiac St., Bldg. 40, Wallingford CT 06492
  
  
 ---------------------------------------------------------------
 Warning -- This program may not be used in any manner that
 competes with the business of Gaussian, Inc. or will provide
 assistance to any competitor of Gaussian, Inc.  The licensee
 of this program is prohibited from giving any competitor of
 Gaussian, Inc. access to this program.  By using this program,
 the user acknowledges that Gaussian, Inc. is engaged in the
 business of creating and licensing software in the field of
 computational chemistry and represents and warrants to the
 licensee that it is not a competitor of Gaussian, Inc. and that
 it will not use this program in any manner prohibited above.
 ---------------------------------------------------------------
  

 Cite this work as:
 Gaussian 16, Revision C.01,
 M. J. Frisch, G. W. Trucks, H. B. Schlegel, G. E. Scuseria, 
 M. A. Robb, J. R. Cheeseman, G. Scalmani, V. Barone, 
 G. A. Petersson, H. Nakatsuji, X. Li, M. Caricato, A. V. Marenich, 
 J. Bloino, B. G. Janesko, R. Gomperts, B. Mennucci, H. P. Hratchian, 
 J. V. Ortiz, A. F. Izmaylov, J. L. Sonnenberg, D. Williams-Young, 
 F. Ding, F. Lipparini, F. Egidi, J. Goings, B. Peng, A. Petrone, 
 T. Henderson, D. Ranasinghe, V. G. Zakrzewski, J. Gao, N. Rega, 
 G. Zheng, W. Liang, M. Hada, M. Ehara, K. Toyota, R. Fukuda, 
 J. Hasegawa, M. Ishida, T. Nakajima, Y. Honda, O. Kitao, H. Nakai, 
 T. Vreven, K. Throssell, J. A. Montgomery, Jr., J. E. Peralta, 
 F. Ogliaro, M. J. Bearpark, J. J. Heyd, E. N. Brothers, K. N. Kudin, 
 V. N. Staroverov, T. A. Keith, R. Kobayashi, J. Normand, 
 K. Raghavachari, A. P. Rendell, J. C. Burant, S. S. Iyengar, 
 J. Tomasi, M. Cossi, J. M. Millam, M. Klene, C. Adamo, R. Cammi, 
 J. W. Ochterski, R. L. Martin, K. Morokuma, O. Farkas, 
 J. B. Foresman, and D. J. Fox, Gaussian, Inc., Wallingford CT, 2019.
 
 ******************************************
 Gaussian 16:  ES64L-G16RevC.01  3-Jul-2019
                11-Jun-2024 
 ******************************************
 %nprocshared=32
 Will use up to   32 processors via shared memory.
 %mem=62GB
 ----------------------------------------------------------------------
 #p m062x genecp freq nosymm scrf=(smd,solvent=propylethanoate) empiric
 aldispersion=gd3 scf=(xqc,maxcycles=128)
 ----------------------------------------------------------------------
 1/10=4,30=1,38=1/1,3;
 2/12=2,15=1,17=6,18=5,40=1/2;
 3/5=7,11=2,16=1,17=8,25=1,30=1,70=32201,71=2,72=169,74=-55,124=31,140=1/1,2,3;
 4//1;
 5/5=2,7=128,8=3,13=1,38=5,53=169,98=1/2,8;
 8/6=4,10=90,11=11/1;
 11/6=1,8=1,9=11,15=111,16=1,31=1/1,2,10;
 10/6=1,31=1/2;
 6/7=2,8=2,9=2,10=2,28=1/1;
 7/8=1,10=1,25=1,30=1/1,2,3,16;
 1/10=4,30=1/3;
 99//99;
 Leave Link    1 at Tue Jun 11 17:54:38 2024, MaxMem=  8321499136 cpu:               1.0 elap:               0.0
 (Enter /opt/packages/gaussian/g16RevC.01/g16/l101.exe)
 -------------------
 Title Card Required
 -------------------
 Symbolic Z-matrix:
 Charge =  0 Multiplicity = 1
 C                    -0.29717  -3.01416   0.18695 
 C                    -1.22293  -1.90153   0.36891 
 C                    -1.26394  -1.36281   1.72923 
 C                    -0.24181  -1.65932   2.57954 
 C                     0.80543  -2.54014   2.15567 
 N                     0.67515  -3.27272   1.00926 
 H                    -0.2236   -1.19703   3.56241 
 C                    -0.48941  -3.97174  -0.94628 
 C                    -0.18301  -3.68979  -2.28617 
 C                    -0.54944  -4.61244  -3.27513 
 C                    -1.48159  -6.10046  -1.61382 
 C                    -1.19187  -5.80321  -2.94406 
 H                    -0.30574  -4.39202  -4.3157 
 H                    -1.46522  -6.51117  -3.72772 
 H                    -1.98745  -7.01903  -1.31524 
 C                    -1.12584  -5.17561  -0.64564 
 C                     0.53607  -2.44497  -2.66305 
 C                     1.80063  -2.17593  -2.12522 
 C                    -0.01321  -1.5615   -3.60277 
 C                     2.51276  -1.04965  -2.5347 
 H                     2.2326   -2.86786  -1.39853 
 C                     0.69294  -0.42706  -3.99389 
 H                    -1.00631  -1.76092  -4.01132 
 C                     1.95854  -0.17143  -3.46432 
 H                     3.50241  -0.85507  -2.1213 
 H                     0.24668   0.27219  -4.70184 
 H                     2.50734   0.72193  -3.7676 
 F                    -1.45364  -5.41365   0.6305 
 C                    -2.32223  -0.38545   2.11468 
 H                    -2.09195   0.08867   3.07548 
 H                    -2.40003   0.39326   1.33975 
 H                    -3.30338  -0.87999   2.16795 
 C                     2.90627  -3.75792   2.54894 
 C                     2.28977  -1.9669    4.05005 
 C                     3.0509   -4.66186   3.76827 
 H                     3.86851  -3.26379   2.34571 
 H                     2.58679  -4.3228    1.66907 
 C                     2.46563  -2.93322   5.21521 
 H                     3.24794  -1.46696   3.83617 
 H                     1.55148  -1.19658   4.28506 
 H                     3.84081  -5.40259   3.5871 
 H                     2.09803  -5.1981    3.94052 
 H                     2.82523  -2.38985   6.09864 
 H                     1.48809  -3.39324   5.45693 
 N                     1.92078  -2.71987   2.85441 
 O                     3.41405  -3.9244    4.90926 
 I                    -3.10454  -2.09649  -0.61253 
 H                    -0.68703  -0.82964  -0.20076 
 C                    -0.11464   6.08763   2.99889 
 C                     0.22624   5.24107   1.97104 
 C                    -0.76593   4.4607    1.313 
 C                    -2.11224   4.55581   1.76761 
 C                    -2.4375    5.44894   2.82656 
 C                    -1.4607    6.20305   3.42653 
 H                     0.66097   6.67345   3.49452 
 H                     1.26945   5.15907   1.66621 
 C                    -0.45802   3.562     0.2371 
 C                    -3.10471   3.73614   1.18268 
 H                    -3.47681   5.51185   3.15453 
 H                    -1.71377   6.8839    4.24063 
 C                    -2.79942   2.83217   0.18218 
 C                    -1.45089   2.76024  -0.29571 
 H                    -4.1319    3.79918   1.54638 
 C                     0.96382   3.495    -0.24047 
 C                     1.75007   2.36915  -0.0634 
 C                     1.50273   4.64002  -0.91554 
 C                     3.12492   2.35531  -0.4653 
 C                     2.871     4.63089  -1.30956 
 C                     0.71449   5.78273  -1.23055 
 C                     3.65942   3.48587  -1.05556 
 C                     3.423     5.76663  -1.96563 
 C                     1.27061   6.8608   -1.87641 
 H                    -0.34365   5.7975   -0.96911 
 H                     4.71115   3.48496  -1.347 
 C                     2.6406    6.85989  -2.23986 
 H                     4.47618   5.74269  -2.25172 
 H                     0.64969   7.72513  -2.1167 
 H                     3.06645   7.72692  -2.74712 
 S                    -0.92911   1.50743  -1.46013 
 O                    -0.08067   2.16112  -2.40317 
 O                    -2.05295   0.79482  -1.96627 
 S                     0.95176   0.92537   0.62326 
 O                     0.29217   1.37092   1.8136 
 O                     1.8717   -0.15914   0.76885 
 N                    -0.11617   0.4735   -0.51307 
 C                    -3.86229   1.98586  -0.2763 
 C                    -4.81235   1.28368  -0.55119 
 C                     4.00306   1.23882  -0.28632 
 C                     4.80765   0.33579  -0.19718 
 C                     5.6102   -0.84707  -0.12789 
 C                     4.96293  -2.07736   0.06773 
 C                     7.00973  -0.82921  -0.28367 
 C                     5.69735  -3.26009   0.1007 
 H                     3.87694  -2.07668   0.18953 
 C                     7.73825  -2.01373  -0.24384 
 C                     7.08272  -3.2309   -0.05402 
 H                     5.18314  -4.21186   0.24573 
 H                     8.82115  -1.98547  -0.3653 
 H                     7.65864  -4.15665  -0.02912 
 C                    -5.87164   0.38379  -0.8946 
 C                    -5.9044   -0.19184  -2.17422 
 C                    -6.86145   0.02116   0.04036 
 C                    -6.90289  -1.10221  -2.51031 
 H                    -5.13053   0.08236  -2.89222 
 C                    -7.85765  -0.88818  -0.30202 
 C                    -7.88007  -1.4504   -1.57845 
 H                    -6.91611  -1.54306  -3.50821 
 H                    -8.61542  -1.16063   0.43269 
 H                    -8.66231  -2.16331  -1.84159 
 C                     7.70882   0.48846  -0.49411 
 F                     7.50525   1.32702   0.52674 
 F                     9.02817   0.33891  -0.62207 
 F                     7.27585   1.1123   -1.59521 
 C                    -6.81365   0.60281   1.42944 
 F                    -6.85973   1.93944   1.41861 
 F                    -7.83333   0.18353   2.18074 
 F                    -5.68978   0.26354   2.07294 
 
 ITRead=  0  0  0  0  0  0  0  0  0  0  0  0  0  0  0  0  0  0  0  0
 ITRead=  0  0  0  0  0  0  0  0  0  0  0  0  0  0  0  0  0  0  0  0
 ITRead=  0  0  0  0  0  0  0  0  0  0  0  0  0  0  0  0  0  0  0  0
 ITRead=  0  0  0  0  0  0  0  0  0  0  0  0  0  0  0  0  0  0  0  0
 ITRead=  0  0  0  0  0  0  0  0  0  0  0  0  0  0  0  0  0  0  0  0
 ITRead=  0  0  0  0  0  0  0  0  0  0  0  0  0  0  0  0  0
 MicOpt= -1 -1 -1 -1 -1 -1 -1 -1 -1 -1 -1 -1 -1 -1 -1 -1 -1 -1 -1 -1
 MicOpt= -1 -1 -1 -1 -1 -1 -1 -1 -1 -1 -1 -1 -1 -1 -1 -1 -1 -1 -1 -1
 MicOpt= -1 -1 -1 -1 -1 -1 -1 -1 -1 -1 -1 -1 -1 -1 -1 -1 -1 -1 -1 -1
 MicOpt= -1 -1 -1 -1 -1 -1 -1 -1 -1 -1 -1 -1 -1 -1 -1 -1 -1 -1 -1 -1
 MicOpt= -1 -1 -1 -1 -1 -1 -1 -1 -1 -1 -1 -1 -1 -1 -1 -1 -1 -1 -1 -1
 MicOpt= -1 -1 -1 -1 -1 -1 -1 -1 -1 -1 -1 -1 -1 -1 -1 -1 -1
 NAtoms=    117 NQM=      117 NQMF=       0 NMMI=      0 NMMIF=      0
                NMic=       0 NMicF=      0.
                    Isotopes and Nuclear Properties:
 (Nuclear quadrupole moments (NQMom) in fm**2, nuclear magnetic moments (NMagM)
  in nuclear magnetons)

  Atom         1           2           3           4           5           6           7           8           9          10
 IAtWgt=          12          12          12          12          12          14           1          12          12          12
 AtmWgt=  12.0000000  12.0000000  12.0000000  12.0000000  12.0000000  14.0030740   1.0078250  12.0000000  12.0000000  12.0000000
 NucSpn=           0           0           0           0           0           2           1           0           0           0
 AtZEff=   0.0000000   0.0000000   0.0000000   0.0000000   0.0000000   0.0000000   0.0000000   0.0000000   0.0000000   0.0000000
 NQMom=    0.0000000   0.0000000   0.0000000   0.0000000   0.0000000   2.0440000   0.0000000   0.0000000   0.0000000   0.0000000
 NMagM=    0.0000000   0.0000000   0.0000000   0.0000000   0.0000000   0.4037610   2.7928460   0.0000000   0.0000000   0.0000000
 AtZNuc=   6.0000000   6.0000000   6.0000000   6.0000000   6.0000000   7.0000000   1.0000000   6.0000000   6.0000000   6.0000000

  Atom        11          12          13          14          15          16          17          18          19          20
 IAtWgt=          12          12           1           1           1          12          12          12          12          12
 AtmWgt=  12.0000000  12.0000000   1.0078250   1.0078250   1.0078250  12.0000000  12.0000000  12.0000000  12.0000000  12.0000000
 NucSpn=           0           0           1           1           1           0           0           0           0           0
 AtZEff=   0.0000000   0.0000000   0.0000000   0.0000000   0.0000000   0.0000000   0.0000000   0.0000000   0.0000000   0.0000000
 NQMom=    0.0000000   0.0000000   0.0000000   0.0000000   0.0000000   0.0000000   0.0000000   0.0000000   0.0000000   0.0000000
 NMagM=    0.0000000   0.0000000   2.7928460   2.7928460   2.7928460   0.0000000   0.0000000   0.0000000   0.0000000   0.0000000
 AtZNuc=   6.0000000   6.0000000   1.0000000   1.0000000   1.0000000   6.0000000   6.0000000   6.0000000   6.0000000   6.0000000

  Atom        21          22          23          24          25          26          27          28          29          30
 IAtWgt=           1          12           1          12           1           1           1          19          12           1
 AtmWgt=   1.0078250  12.0000000   1.0078250  12.0000000   1.0078250   1.0078250   1.0078250  18.9984032  12.0000000   1.0078250
 NucSpn=           1           0           1           0           1           1           1           1           0           1
 AtZEff=   0.0000000   0.0000000   0.0000000   0.0000000   0.0000000   0.0000000   0.0000000   0.0000000   0.0000000   0.0000000
 NQMom=    0.0000000   0.0000000   0.0000000   0.0000000   0.0000000   0.0000000   0.0000000   0.0000000   0.0000000   0.0000000
 NMagM=    2.7928460   0.0000000   2.7928460   0.0000000   2.7928460   2.7928460   2.7928460   2.6288670   0.0000000   2.7928460
 AtZNuc=   1.0000000   6.0000000   1.0000000   6.0000000   1.0000000   1.0000000   1.0000000   9.0000000   6.0000000   1.0000000

  Atom        31          32          33          34          35          36          37          38          39          40
 IAtWgt=           1           1          12          12          12           1           1          12           1           1
 AtmWgt=   1.0078250   1.0078250  12.0000000  12.0000000  12.0000000   1.0078250   1.0078250  12.0000000   1.0078250   1.0078250
 NucSpn=           1           1           0           0           0           1           1           0           1           1
 AtZEff=   0.0000000   0.0000000   0.0000000   0.0000000   0.0000000   0.0000000   0.0000000   0.0000000   0.0000000   0.0000000
 NQMom=    0.0000000   0.0000000   0.0000000   0.0000000   0.0000000   0.0000000   0.0000000   0.0000000   0.0000000   0.0000000
 NMagM=    2.7928460   2.7928460   0.0000000   0.0000000   0.0000000   2.7928460   2.7928460   0.0000000   2.7928460   2.7928460
 AtZNuc=   1.0000000   1.0000000   6.0000000   6.0000000   6.0000000   1.0000000   1.0000000   6.0000000   1.0000000   1.0000000

  Atom        41          42          43          44          45          46          47          48          49          50
 IAtWgt=           1           1           1           1          14          16         127           1          12          12
 AtmWgt=   1.0078250   1.0078250   1.0078250   1.0078250  14.0030740  15.9949146 126.9004000   1.0078250  12.0000000  12.0000000
 NucSpn=           1           1           1           1           2           0           5           1           0           0
 AtZEff=   0.0000000   0.0000000   0.0000000   0.0000000   0.0000000   0.0000000   0.0000000   0.0000000   0.0000000   0.0000000
 NQMom=    0.0000000   0.0000000   0.0000000   0.0000000   2.0440000   0.0000000 -71.0000000   0.0000000   0.0000000   0.0000000
 NMagM=    2.7928460   2.7928460   2.7928460   2.7928460   0.4037610   0.0000000   2.8132800   2.7928460   0.0000000   0.0000000
 AtZNuc=   1.0000000   1.0000000   1.0000000   1.0000000   7.0000000   8.0000000  53.0000000   1.0000000   6.0000000   6.0000000

  Atom        51          52          53          54          55          56          57          58          59          60
 IAtWgt=          12          12          12          12           1           1          12          12           1           1
 AtmWgt=  12.0000000  12.0000000  12.0000000  12.0000000   1.0078250   1.0078250  12.0000000  12.0000000   1.0078250   1.0078250
 NucSpn=           0           0           0           0           1           1           0           0           1           1
 AtZEff=   0.0000000   0.0000000   0.0000000   0.0000000   0.0000000   0.0000000   0.0000000   0.0000000   0.0000000   0.0000000
 NQMom=    0.0000000   0.0000000   0.0000000   0.0000000   0.0000000   0.0000000   0.0000000   0.0000000   0.0000000   0.0000000
 NMagM=    0.0000000   0.0000000   0.0000000   0.0000000   2.7928460   2.7928460   0.0000000   0.0000000   2.7928460   2.7928460
 AtZNuc=   6.0000000   6.0000000   6.0000000   6.0000000   1.0000000   1.0000000   6.0000000   6.0000000   1.0000000   1.0000000

  Atom        61          62          63          64          65          66          67          68          69          70
 IAtWgt=          12          12           1          12          12          12          12          12          12          12
 AtmWgt=  12.0000000  12.0000000   1.0078250  12.0000000  12.0000000  12.0000000  12.0000000  12.0000000  12.0000000  12.0000000
 NucSpn=           0           0           1           0           0           0           0           0           0           0
 AtZEff=   0.0000000   0.0000000   0.0000000   0.0000000   0.0000000   0.0000000   0.0000000   0.0000000   0.0000000   0.0000000
 NQMom=    0.0000000   0.0000000   0.0000000   0.0000000   0.0000000   0.0000000   0.0000000   0.0000000   0.0000000   0.0000000
 NMagM=    0.0000000   0.0000000   2.7928460   0.0000000   0.0000000   0.0000000   0.0000000   0.0000000   0.0000000   0.0000000
 AtZNuc=   6.0000000   6.0000000   1.0000000   6.0000000   6.0000000   6.0000000   6.0000000   6.0000000   6.0000000   6.0000000

  Atom        71          72          73          74          75          76          77          78          79          80
 IAtWgt=          12          12           1           1          12           1           1           1          32          16
 AtmWgt=  12.0000000  12.0000000   1.0078250   1.0078250  12.0000000   1.0078250   1.0078250   1.0078250  31.9720718  15.9949146
 NucSpn=           0           0           1           1           0           1           1           1           0           0
 AtZEff=   0.0000000   0.0000000   0.0000000   0.0000000   0.0000000   0.0000000   0.0000000   0.0000000   0.0000000   0.0000000
 NQMom=    0.0000000   0.0000000   0.0000000   0.0000000   0.0000000   0.0000000   0.0000000   0.0000000   0.0000000   0.0000000
 NMagM=    0.0000000   0.0000000   2.7928460   2.7928460   0.0000000   2.7928460   2.7928460   2.7928460   0.0000000   0.0000000
 AtZNuc=   6.0000000   6.0000000   1.0000000   1.0000000   6.0000000   1.0000000   1.0000000   1.0000000  16.0000000   8.0000000

  Atom        81          82          83          84          85          86          87          88          89          90
 IAtWgt=          16          32          16          16          14          12          12          12          12          12
 AtmWgt=  15.9949146  31.9720718  15.9949146  15.9949146  14.0030740  12.0000000  12.0000000  12.0000000  12.0000000  12.0000000
 NucSpn=           0           0           0           0           2           0           0           0           0           0
 AtZEff=   0.0000000   0.0000000   0.0000000   0.0000000   0.0000000   0.0000000   0.0000000   0.0000000   0.0000000   0.0000000
 NQMom=    0.0000000   0.0000000   0.0000000   0.0000000   2.0440000   0.0000000   0.0000000   0.0000000   0.0000000   0.0000000
 NMagM=    0.0000000   0.0000000   0.0000000   0.0000000   0.4037610   0.0000000   0.0000000   0.0000000   0.0000000   0.0000000
 AtZNuc=   8.0000000  16.0000000   8.0000000   8.0000000   7.0000000   6.0000000   6.0000000   6.0000000   6.0000000   6.0000000

  Atom        91          92          93          94          95          96          97          98          99         100
 IAtWgt=          12          12          12           1          12          12           1           1           1          12
 AtmWgt=  12.0000000  12.0000000  12.0000000   1.0078250  12.0000000  12.0000000   1.0078250   1.0078250   1.0078250  12.0000000
 NucSpn=           0           0           0           1           0           0           1           1           1           0
 AtZEff=   0.0000000   0.0000000   0.0000000   0.0000000   0.0000000   0.0000000   0.0000000   0.0000000   0.0000000   0.0000000
 NQMom=    0.0000000   0.0000000   0.0000000   0.0000000   0.0000000   0.0000000   0.0000000   0.0000000   0.0000000   0.0000000
 NMagM=    0.0000000   0.0000000   0.0000000   2.7928460   0.0000000   0.0000000   2.7928460   2.7928460   2.7928460   0.0000000
 AtZNuc=   6.0000000   6.0000000   6.0000000   1.0000000   6.0000000   6.0000000   1.0000000   1.0000000   1.0000000   6.0000000

  Atom       101         102         103         104         105         106         107         108         109         110
 IAtWgt=          12          12          12           1          12          12           1           1           1          12
 AtmWgt=  12.0000000  12.0000000  12.0000000   1.0078250  12.0000000  12.0000000   1.0078250   1.0078250   1.0078250  12.0000000
 NucSpn=           0           0           0           1           0           0           1           1           1           0
 AtZEff=   0.0000000   0.0000000   0.0000000   0.0000000   0.0000000   0.0000000   0.0000000   0.0000000   0.0000000   0.0000000
 NQMom=    0.0000000   0.0000000   0.0000000   0.0000000   0.0000000   0.0000000   0.0000000   0.0000000   0.0000000   0.0000000
 NMagM=    0.0000000   0.0000000   0.0000000   2.7928460   0.0000000   0.0000000   2.7928460   2.7928460   2.7928460   0.0000000
 AtZNuc=   6.0000000   6.0000000   6.0000000   1.0000000   6.0000000   6.0000000   1.0000000   1.0000000   1.0000000   6.0000000

  Atom       111         112         113         114         115         116         117
 IAtWgt=          19          19          19          12          19          19          19
 AtmWgt=  18.9984032  18.9984032  18.9984032  12.0000000  18.9984032  18.9984032  18.9984032
 NucSpn=           1           1           1           0           1           1           1
 AtZEff=   0.0000000   0.0000000   0.0000000   0.0000000   0.0000000   0.0000000   0.0000000
 NQMom=    0.0000000   0.0000000   0.0000000   0.0000000   0.0000000   0.0000000   0.0000000
 NMagM=    2.6288670   2.6288670   2.6288670   0.0000000   2.6288670   2.6288670   2.6288670
 AtZNuc=   9.0000000   9.0000000   9.0000000   6.0000000   9.0000000   9.0000000   9.0000000
 Leave Link  101 at Tue Jun 11 17:54:38 2024, MaxMem=  8321499136 cpu:               2.3 elap:               0.1
 (Enter /opt/packages/gaussian/g16RevC.01/g16/l103.exe)

 GradGradGradGradGradGradGradGradGradGradGradGradGradGradGradGradGradGrad
 Berny optimization.
 Initialization pass.
 Trust Radius=3.00D-01 FncErr=1.00D-07 GrdErr=1.00D-07 EigMax=2.50D+02 EigMin=1.00D-04
 Number of steps in this run=      2 maximum allowed number of steps=      2.
 GradGradGradGradGradGradGradGradGradGradGradGradGradGradGradGradGradGrad

 Leave Link  103 at Tue Jun 11 17:54:38 2024, MaxMem=  8321499136 cpu:               0.5 elap:               0.0
 (Enter /opt/packages/gaussian/g16RevC.01/g16/l202.exe)
 Symmetry turned off by external request.
 Stoichiometry    C60H39F7IN3O5S2
 Framework group  C1[X(C60H39F7IN3O5S2)]
 Deg. of freedom   345
 Full point group                 C1      NOp   1
                          Input orientation:                          
 ---------------------------------------------------------------------
 Center     Atomic      Atomic             Coordinates (Angstroms)
 Number     Number       Type             X           Y           Z
 ---------------------------------------------------------------------
      1          6           0       -0.297174   -3.014164    0.186949
      2          6           0       -1.222929   -1.901527    0.368905
      3          6           0       -1.263938   -1.362808    1.729233
      4          6           0       -0.241812   -1.659322    2.579540
      5          6           0        0.805425   -2.540141    2.155672
      6          7           0        0.675153   -3.272723    1.009258
      7          1           0       -0.223604   -1.197030    3.562406
      8          6           0       -0.489409   -3.971744   -0.946279
      9          6           0       -0.183011   -3.689792   -2.286166
     10          6           0       -0.549435   -4.612437   -3.275127
     11          6           0       -1.481590   -6.100460   -1.613818
     12          6           0       -1.191872   -5.803213   -2.944063
     13          1           0       -0.305736   -4.392021   -4.315700
     14          1           0       -1.465216   -6.511167   -3.727724
     15          1           0       -1.987450   -7.019027   -1.315244
     16          6           0       -1.125841   -5.175608   -0.645638
     17          6           0        0.536069   -2.444974   -2.663045
     18          6           0        1.800627   -2.175926   -2.125222
     19          6           0       -0.013208   -1.561496   -3.602769
     20          6           0        2.512763   -1.049654   -2.534700
     21          1           0        2.232604   -2.867859   -1.398530
     22          6           0        0.692936   -0.427058   -3.993887
     23          1           0       -1.006305   -1.760917   -4.011317
     24          6           0        1.958538   -0.171432   -3.464319
     25          1           0        3.502408   -0.855069   -2.121304
     26          1           0        0.246683    0.272188   -4.701837
     27          1           0        2.507339    0.721927   -3.767599
     28          9           0       -1.453636   -5.413650    0.630500
     29          6           0       -2.322231   -0.385453    2.114679
     30          1           0       -2.091949    0.088673    3.075476
     31          1           0       -2.400029    0.393262    1.339747
     32          1           0       -3.303377   -0.879994    2.167949
     33          6           0        2.906265   -3.757915    2.548944
     34          6           0        2.289772   -1.966904    4.050049
     35          6           0        3.050900   -4.661858    3.768268
     36          1           0        3.868514   -3.263793    2.345709
     37          1           0        2.586791   -4.322802    1.669071
     38          6           0        2.465627   -2.933224    5.215213
     39          1           0        3.247941   -1.466958    3.836170
     40          1           0        1.551479   -1.196581    4.285059
     41          1           0        3.840810   -5.402587    3.587099
     42          1           0        2.098034   -5.198101    3.940523
     43          1           0        2.825230   -2.389853    6.098641
     44          1           0        1.488088   -3.393238    5.456927
     45          7           0        1.920775   -2.719871    2.854409
     46          8           0        3.414047   -3.924403    4.909264
     47         53           0       -3.104542   -2.096489   -0.612534
     48          1           0       -0.687032   -0.829636   -0.200758
     49          6           0       -0.114639    6.087633    2.998892
     50          6           0        0.226241    5.241067    1.971038
     51          6           0       -0.765929    4.460697    1.313001
     52          6           0       -2.112241    4.555813    1.767606
     53          6           0       -2.437500    5.448936    2.826560
     54          6           0       -1.460697    6.203054    3.426527
     55          1           0        0.660966    6.673454    3.494519
     56          1           0        1.269446    5.159072    1.666210
     57          6           0       -0.458015    3.561997    0.237098
     58          6           0       -3.104709    3.736135    1.182684
     59          1           0       -3.476814    5.511849    3.154527
     60          1           0       -1.713771    6.883896    4.240634
     61          6           0       -2.799415    2.832166    0.182175
     62          6           0       -1.450890    2.760239   -0.295709
     63          1           0       -4.131905    3.799180    1.546379
     64          6           0        0.963822    3.495001   -0.240470
     65          6           0        1.750072    2.369153   -0.063401
     66          6           0        1.502728    4.640020   -0.915540
     67          6           0        3.124922    2.355314   -0.465301
     68          6           0        2.871000    4.630894   -1.309555
     69          6           0        0.714490    5.782728   -1.230547
     70          6           0        3.659419    3.485870   -1.055561
     71          6           0        3.423004    5.766625   -1.965633
     72          6           0        1.270607    6.860801   -1.876410
     73          1           0       -0.343646    5.797503   -0.969108
     74          1           0        4.711149    3.484961   -1.346999
     75          6           0        2.640602    6.859885   -2.239861
     76          1           0        4.476184    5.742693   -2.251719
     77          1           0        0.649692    7.725131   -2.116697
     78          1           0        3.066453    7.726921   -2.747123
     79         16           0       -0.929105    1.507429   -1.460128
     80          8           0       -0.080665    2.161122   -2.403174
     81          8           0       -2.052948    0.794817   -1.966271
     82         16           0        0.951761    0.925367    0.623263
     83          8           0        0.292165    1.370923    1.813599
     84          8           0        1.871704   -0.159142    0.768850
     85          7           0       -0.116168    0.473498   -0.513067
     86          6           0       -3.862294    1.985855   -0.276302
     87          6           0       -4.812345    1.283678   -0.551189
     88          6           0        4.003064    1.238820   -0.286320
     89          6           0        4.807654    0.335790   -0.197178
     90          6           0        5.610195   -0.847068   -0.127888
     91          6           0        4.962927   -2.077358    0.067726
     92          6           0        7.009731   -0.829207   -0.283670
     93          6           0        5.697345   -3.260085    0.100697
     94          1           0        3.876944   -2.076683    0.189530
     95          6           0        7.738250   -2.013727   -0.243842
     96          6           0        7.082717   -3.230900   -0.054017
     97          1           0        5.183143   -4.211859    0.245733
     98          1           0        8.821150   -1.985474   -0.365304
     99          1           0        7.658637   -4.156652   -0.029121
    100          6           0       -5.871635    0.383788   -0.894599
    101          6           0       -5.904403   -0.191838   -2.174222
    102          6           0       -6.861447    0.021159    0.040360
    103          6           0       -6.902889   -1.102209   -2.510310
    104          1           0       -5.130526    0.082362   -2.892219
    105          6           0       -7.857649   -0.888181   -0.302019
    106          6           0       -7.880067   -1.450402   -1.578454
    107          1           0       -6.916110   -1.543058   -3.508208
    108          1           0       -8.615415   -1.160625    0.432685
    109          1           0       -8.662306   -2.163312   -1.841586
    110          6           0        7.708817    0.488462   -0.494108
    111          9           0        7.505245    1.327019    0.526737
    112          9           0        9.028168    0.338911   -0.622069
    113          9           0        7.275855    1.112301   -1.595210
    114          6           0       -6.813652    0.602805    1.429438
    115          9           0       -6.859731    1.939442    1.418608
    116          9           0       -7.833335    0.183526    2.180739
    117          9           0       -5.689784    0.263538    2.072940
 ---------------------------------------------------------------------
 Rotational constants (GHZ):           0.0319113           0.0215544           0.0166122
 Leave Link  202 at Tue Jun 11 17:54:38 2024, MaxMem=  8321499136 cpu:               0.4 elap:               0.0
 (Enter /opt/packages/gaussian/g16RevC.01/g16/l301.exe)
 General basis read from cards:  (5D, 7F)
 Centers:       1      2      3      4      5      8      9     10     11     12
 Centers:      16     17     18     19     20     22     24     29     33     34
 Centers:      35     38     49     50     51     52     53     54     57     58
 Centers:      61     62     64     65     66     67     68     69     70     71
 Centers:      72     75     86     87     88     89     90     91     92     93
 Centers:      95     96    100    101    102    103    105    106    110    114
 Centers:       7     13     14     15     21     23     25     26     27     30
 Centers:      31     32     36     37     39     40     41     42     43     44
 Centers:      48     55     56     59     60     63     73     74     76     77
 Centers:      78     94     97     98     99    104    107    108    109      6
 Centers:      45     85     28    111    112    113    115    116    117     46
 Centers:      80     81     83     84
 def2svp
 ****
 Centers:      47     79     82
 def2tzvp
 ****
 ======================================================================================================
                                       Pseudopotential Parameters
 ======================================================================================================
  Center     Atomic      Valence      Angular      Power
  Number     Number     Electrons     Momentum     of R      Exponent        Coefficient   SO-Coeffient
 ======================================================================================================
    1          6
                                   No pseudopotential on this center.
    2          6
                                   No pseudopotential on this center.
    3          6
                                   No pseudopotential on this center.
    4          6
                                   No pseudopotential on this center.
    5          6
                                   No pseudopotential on this center.
    6          7
                                   No pseudopotential on this center.
    7          1
                                   No pseudopotential on this center.
    8          6
                                   No pseudopotential on this center.
    9          6
                                   No pseudopotential on this center.
   10          6
                                   No pseudopotential on this center.
   11          6
                                   No pseudopotential on this center.
   12          6
                                   No pseudopotential on this center.
   13          1
                                   No pseudopotential on this center.
   14          1
                                   No pseudopotential on this center.
   15          1
                                   No pseudopotential on this center.
   16          6
                                   No pseudopotential on this center.
   17          6
                                   No pseudopotential on this center.
   18          6
                                   No pseudopotential on this center.
   19          6
                                   No pseudopotential on this center.
   20          6
                                   No pseudopotential on this center.
   21          1
                                   No pseudopotential on this center.
   22          6
                                   No pseudopotential on this center.
   23          1
                                   No pseudopotential on this center.
   24          6
                                   No pseudopotential on this center.
   25          1
                                   No pseudopotential on this center.
   26          1
                                   No pseudopotential on this center.
   27          1
                                   No pseudopotential on this center.
   28          9
                                   No pseudopotential on this center.
   29          6
                                   No pseudopotential on this center.
   30          1
                                   No pseudopotential on this center.
   31          1
                                   No pseudopotential on this center.
   32          1
                                   No pseudopotential on this center.
   33          6
                                   No pseudopotential on this center.
   34          6
                                   No pseudopotential on this center.
   35          6
                                   No pseudopotential on this center.
   36          1
                                   No pseudopotential on this center.
   37          1
                                   No pseudopotential on this center.
   38          6
                                   No pseudopotential on this center.
   39          1
                                   No pseudopotential on this center.
   40          1
                                   No pseudopotential on this center.
   41          1
                                   No pseudopotential on this center.
   42          1
                                   No pseudopotential on this center.
   43          1
                                   No pseudopotential on this center.
   44          1
                                   No pseudopotential on this center.
   45          7
                                   No pseudopotential on this center.
   46          8
                                   No pseudopotential on this center.
   47         53           25
                                      G and up 
                                                     2        1.0000000        0.00000000    0.00000000
                                      S - G
                                                     2       40.0158350       49.99429300    0.00000000
                                                     2       17.4297470      281.02531700    0.00000000
                                                     2        9.0054840       61.57332600    0.00000000
                                      P - G
                                                     2       15.3554660       67.44284100 -134.88568300
                                                     2       14.9718330      134.88113700  134.88113700
                                                     2        8.9601640       14.67505100  -29.35010100
                                                     2        8.2590960       29.37566600   29.37566600
                                      D - G
                                                     2       15.0689080       35.43952900  -35.43952900
                                                     2       14.5553220       53.17605700   35.45070400
                                                     2        6.7186470        9.06719500   -9.06719500
                                                     2        6.4563930       13.20693700    8.80462400
                                                     2        1.1917790        0.08933500   -0.08933500
                                                     2        1.2911570        0.05238000    0.03492000
                                      F - G
                                                     2       19.4586090      -21.84204000   14.56136000
                                                     2       19.3492600      -28.46819100  -14.23409500
                                                     2        4.8237670       -0.24371300    0.16247500
                                                     2        4.8843150       -0.32080400   -0.16040200
   48          1
                                   No pseudopotential on this center.
   49          6
                                   No pseudopotential on this center.
   50          6
                                   No pseudopotential on this center.
   51          6
                                   No pseudopotential on this center.
   52          6
                                   No pseudopotential on this center.
   53          6
                                   No pseudopotential on this center.
   54          6
                                   No pseudopotential on this center.
   55          1
                                   No pseudopotential on this center.
   56          1
                                   No pseudopotential on this center.
   57          6
                                   No pseudopotential on this center.
   58          6
                                   No pseudopotential on this center.
   59          1
                                   No pseudopotential on this center.
   60          1
                                   No pseudopotential on this center.
   61          6
                                   No pseudopotential on this center.
   62          6
                                   No pseudopotential on this center.
   63          1
                                   No pseudopotential on this center.
   64          6
                                   No pseudopotential on this center.
   65          6
                                   No pseudopotential on this center.
   66          6
                                   No pseudopotential on this center.
   67          6
                                   No pseudopotential on this center.
   68          6
                                   No pseudopotential on this center.
   69          6
                                   No pseudopotential on this center.
   70          6
                                   No pseudopotential on this center.
   71          6
                                   No pseudopotential on this center.
   72          6
                                   No pseudopotential on this center.
   73          1
                                   No pseudopotential on this center.
   74          1
                                   No pseudopotential on this center.
   75          6
                                   No pseudopotential on this center.
   76          1
                                   No pseudopotential on this center.
   77          1
                                   No pseudopotential on this center.
   78          1
                                   No pseudopotential on this center.
   79         16
                                   No pseudopotential on this center.
   80          8
                                   No pseudopotential on this center.
   81          8
                                   No pseudopotential on this center.
   82         16
                                   No pseudopotential on this center.
   83          8
                                   No pseudopotential on this center.
   84          8
                                   No pseudopotential on this center.
   85          7
                                   No pseudopotential on this center.
   86          6
                                   No pseudopotential on this center.
   87          6
                                   No pseudopotential on this center.
   88          6
                                   No pseudopotential on this center.
   89          6
                                   No pseudopotential on this center.
   90          6
                                   No pseudopotential on this center.
   91          6
                                   No pseudopotential on this center.
   92          6
                                   No pseudopotential on this center.
   93          6
                                   No pseudopotential on this center.
   94          1
                                   No pseudopotential on this center.
   95          6
                                   No pseudopotential on this center.
   96          6
                                   No pseudopotential on this center.
   97          1
                                   No pseudopotential on this center.
   98          1
                                   No pseudopotential on this center.
   99          1
                                   No pseudopotential on this center.
  100          6
                                   No pseudopotential on this center.
  101          6
                                   No pseudopotential on this center.
  102          6
                                   No pseudopotential on this center.
  103          6
                                   No pseudopotential on this center.
  104          1
                                   No pseudopotential on this center.
  105          6
                                   No pseudopotential on this center.
  106          6
                                   No pseudopotential on this center.
  107          1
                                   No pseudopotential on this center.
  108          1
                                   No pseudopotential on this center.
  109          1
                                   No pseudopotential on this center.
  110          6
                                   No pseudopotential on this center.
  111          9
                                   No pseudopotential on this center.
  112          9
                                   No pseudopotential on this center.
  113          9
                                   No pseudopotential on this center.
  114          6
                                   No pseudopotential on this center.
  115          9
                                   No pseudopotential on this center.
  116          9
                                   No pseudopotential on this center.
  117          9
                                   No pseudopotential on this center.
 ======================================================================================================
 Ernie: Thresh=  0.10000D-02 Tol=  0.10000D-05 Strict=F.
  1369 basis functions,  2395 primitive gaussians,  1463 cartesian basis functions
   290 alpha electrons      290 beta electrons
       nuclear repulsion energy     15605.5662771075 Hartrees.
 IExCor= 4336 DFT=T Ex+Corr=M062X ExCW=0 ScaHFX=  0.540000
 ScaDFX=  1.000000  1.000000  1.000000  1.000000 ScalE2=  1.000000  1.000000
 IRadAn=      5 IRanWt=     -1 IRanGd=            0 ICorTp=0 IEmpDi=131
 NAtoms=  117 NActive=  117 NUniq=  117 SFac= 1.00D+00 NAtFMM=   60 NAOKFM=T Big=T
 Integral buffers will be    131072 words long.
 Raffenetti 2 integral format.
 Two-electron integral symmetry is turned off.
 R6Disp:  Grimme-D3 Dispersion energy=       -0.0190180600 Hartrees.
 Nuclear repulsion after empirical dispersion term =    15605.5472590474 Hartrees.
 Force inversion solution in PCM.
 ------------------------------------------------------------------------------
 Polarizable Continuum Model (PCM)
 =================================
 Model                : PCM.
 Atomic radii         : SMD-Coulomb.
 Polarization charges : Total charges.
 Charge compensation  : None.
 Solution method      : Matrix inversion.
 Cavity type          : VdW (van der Waals Surface) (Alpha=1.000).
 Cavity algorithm     : GePol (No added spheres)
                        Default sphere list used, NSphG=  117.
                        Lebedev-Laikov grids with approx.  5.0 points / Ang**2.
                        Smoothing algorithm: York/Karplus (Gamma=1.0000).
                        Polarization charges: spherical gaussians, with
                                              point-specific exponents (IZeta= 3).
                        Self-potential: point-specific (ISelfS= 7).
                        Self-field    : sphere-specific E.n sum rule (ISelfD= 2).
 1st derivatives      : Analytical E(r).r(x)/FMM algorithm (CHGder, D1EAlg=3).
                        Cavity 1st derivative terms included.
 2nd derivatives      : Analytical E(r).r(xy)/FMM algorithm (CHGder, D2EAlg=3).
                        Cavity 2nd derivative terms included.
 Solvent              : PropylEthanoate, Eps=   5.520500 Eps(inf)=   1.916010
 ------------------------------------------------------------------------------
 GePol: Number of generator spheres                  =     117
 GePol: Total number of spheres                      =     117
 GePol: Number of exposed spheres                    =     117 (100.00%)
 GePol: Number of points                             =    8375
 GePol: Average weight of points                     =       0.11
 GePol: Minimum weight of points                     =   0.13D-10
 GePol: Maximum weight of points                     =    0.21501
 GePol: Number of points with low weight             =     566
 GePol: Fraction of low-weight points (<1% of avg)   =       6.76%
 GePol: Cavity surface area                          =    936.200 Ang**2
 GePol: Cavity volume                                =   1072.964 Ang**3
 ------------------------------------------------------------------------------
 Atomic radii for non-electrostatic terms: SMD-CDS.
 ------------------------------------------------------------------------------
 PCM non-electrostatic energy =        -0.0209390708 Hartrees.
 Nuclear repulsion after PCM non-electrostatic terms =    15605.5263199766 Hartrees.
 Leave Link  301 at Tue Jun 11 17:54:39 2024, MaxMem=  8321499136 cpu:               5.3 elap:               0.2
 (Enter /opt/packages/gaussian/g16RevC.01/g16/l302.exe)
 NPDir=0 NMtPBC=     1 NCelOv=     1 NCel=       1 NClECP=     1 NCelD=      1
         NCelK=      1 NCelE2=     1 NClLst=     1 CellRange=     0.0.
 One-electron integrals computed using PRISM.
   1 Symmetry operations used in ECPInt.
 ECPInt:  NShTT=  185745 NPrTT=  697989 LenC2=  129968 LenP2D=  287729.
 LDataN:  DoStor=T MaxTD1= 7 Len=  274
 NBasis=  1369 RedAO= T EigKep=  1.57D-04  NBF=  1369
 NBsUse=  1369 1.00D-06 EigRej= -1.00D+00 NBFU=  1369
 Precomputing XC quadrature grid using
 IXCGrd= 4 IRadAn=           5 IRanWt=          -1 IRanGd=           0 AccXCQ= 0.00D+00.
 Defaulting to unpruned grid for atomic number  53.
 Generated NRdTot=       0 NPtTot=           0 NUsed=           0 NTot=          32
 NSgBfM=  1258  1230  1239  1255  1258 MxSgAt=   117 MxSgA2=   117.
 Leave Link  302 at Tue Jun 11 17:54:42 2024, MaxMem=  8321499136 cpu:             113.0 elap:               3.6
 (Enter /opt/packages/gaussian/g16RevC.01/g16/l303.exe)
 DipDrv:  MaxL=1.
 Leave Link  303 at Tue Jun 11 17:54:43 2024, MaxMem=  8321499136 cpu:               8.3 elap:               0.3
 (Enter /opt/packages/gaussian/g16RevC.01/g16/l401.exe)
 ExpMin= 7.49D-02 ExpMax= 6.07D+04 ExpMxC= 2.07D+03 IAcc=3 IRadAn=         5 AccDes= 0.00D+00
 Harris functional with IExCor= 1009 and IRadAn=       5 diagonalized for initial guess.
 HarFok:  IExCor= 1009 AccDes= 0.00D+00 IRadAn=         5 IDoV= 1 UseB2=F ITyADJ=14
 ICtDFT=  3500011 ScaDFX=  1.000000  1.000000  1.000000  1.000000
 Defaulting to unpruned grid for atomic number  53.
 FoFCou: FMM=F IPFlag=           0 FMFlag=      100000 FMFlg1=        2001
         NFxFlg=           0 DoJE=T BraDBF=F KetDBF=T FulRan=T
         wScrn=  0.000000 ICntrl=       500 IOpCl=  0 I1Cent=   200000004 NGrid=           0
         NMat0=    1 NMatS0=      1 NMatT0=    0 NMatD0=    1 NMtDS0=    0 NMtDT0=    0
 Symmetry not used in FoFCou.
 Harris En= -4637.17185163722    
 JPrj=0 DoOrth=F DoCkMO=F.
 Leave Link  401 at Tue Jun 11 17:54:49 2024, MaxMem=  8321499136 cpu:             206.5 elap:               6.5
 (Enter /opt/packages/gaussian/g16RevC.01/g16/l502.exe)
 Two-electron integral symmetry not used.
 Closed shell SCF:
 Using DIIS extrapolation, IDIIS=  1040.
 NGot=  8321499136 LenX=  8317157783 LenY=  8315015951
 Requested convergence on RMS density matrix=1.00D-08 within 128 cycles.
 Requested convergence on MAX density matrix=1.00D-06.
 Requested convergence on             energy=1.00D-06.
 No special actions if energy rises.
 Fock matrices will be formed incrementally for  20 cycles.

 Cycle   1  Pass 1  IDiag  1:
 FoFJK:  IHMeth= 1 ICntrl=       0 DoSepK=F KAlg= 0 I1Cent=           0 FoldK=F
 IRaf= 750000000 NMat=       1 IRICut=       1 DoRegI=T DoRafI=F ISym2E= 0 IDoP0=0 IntGTp=1.
 FoFCou: FMM=T IPFlag=           0 FMFlag=      100000 FMFlg1=        2001
         NFxFlg=           0 DoJE=F BraDBF=F KetDBF=F FulRan=T
         wScrn=  0.000000 ICntrl=         0 IOpCl=  0 I1Cent=           0 NGrid=           0
         NMat0=    1 NMatS0=      1 NMatT0=    0 NMatD0=    1 NMtDS0=    0 NMtDT0=    0
 Symmetry not used in FoFCou.
 FMM levels:  10  Number of levels for PrismC:   9
 Defaulting to unpruned grid for atomic number  53.
 Defaulting to unpruned grid for atomic number  53.
 Defaulting to unpruned grid for atomic number  53.
 Defaulting to unpruned grid for atomic number  53.
 Defaulting to unpruned grid for atomic number  53.
 Defaulting to unpruned grid for atomic number  53.
 Defaulting to unpruned grid for atomic number  53.
 Defaulting to unpruned grid for atomic number  53.
 Defaulting to unpruned grid for atomic number  53.
 Defaulting to unpruned grid for atomic number  53.
 Defaulting to unpruned grid for atomic number  53.
 Defaulting to unpruned grid for atomic number  53.
 Defaulting to unpruned grid for atomic number  53.
 Defaulting to unpruned grid for atomic number  53.
 Defaulting to unpruned grid for atomic number  53.
 Defaulting to unpruned grid for atomic number  53.
 Defaulting to unpruned grid for atomic number  53.
 Defaulting to unpruned grid for atomic number  53.
 Defaulting to unpruned grid for atomic number  53.
 Defaulting to unpruned grid for atomic number  53.
 Defaulting to unpruned grid for atomic number  53.
 Defaulting to unpruned grid for atomic number  53.
 Defaulting to unpruned grid for atomic number  53.
 Defaulting to unpruned grid for atomic number  53.
 Defaulting to unpruned grid for atomic number  53.
 Defaulting to unpruned grid for atomic number  53.
 Defaulting to unpruned grid for atomic number  53.
 Defaulting to unpruned grid for atomic number  53.
 Defaulting to unpruned grid for atomic number  53.
 Defaulting to unpruned grid for atomic number  53.
 Defaulting to unpruned grid for atomic number  53.
 Defaulting to unpruned grid for atomic number  53.
 Inv3:  Mode=1 IEnd=   210421875.
 Iteration    1 A*A^-1 deviation from unit magnitude is 3.77D-15 for   3184.
 Iteration    1 A*A^-1 deviation from orthogonality  is 3.00D-15 for   7076    978.
 Iteration    1 A^-1*A deviation from unit magnitude is 3.77D-15 for   7932.
 Iteration    1 A^-1*A deviation from orthogonality  is 3.11D-15 for   6727   2675.
 E= -4637.64730698863    
 DIIS: error= 2.30D-02 at cycle   1 NSaved=   1.
 NSaved= 1 IEnMin= 1 EnMin= -4637.64730698863     IErMin= 1 ErrMin= 2.30D-02
 ErrMax= 2.30D-02  0.00D+00 EMaxC= 1.00D-01 BMatC= 1.76D+00 BMatP= 1.76D+00
 IDIUse=3 WtCom= 7.70D-01 WtEn= 2.30D-01
 Coeff-Com:  0.100D+01
 Coeff-En:   0.100D+01
 Coeff:      0.100D+01
 Gap=     0.331 Goal=   None    Shift=    0.000
 GapD=    0.331 DampG=1.000 DampE=0.500 DampFc=0.5000 IDamp=-1.
 Damping current iteration by 5.00D-01
 RMSDP=2.20D-03 MaxDP=2.54D-01              OVMax= 1.53D-01

 Cycle   2  Pass 1  IDiag  1:
 RMSU=  1.07D-03    CP:  9.76D-01
 E= -4638.33269536333     Delta-E=       -0.685388374701 Rises=F Damp=T
 DIIS: error= 6.40D-03 at cycle   2 NSaved=   2.
 NSaved= 2 IEnMin= 2 EnMin= -4638.33269536333     IErMin= 2 ErrMin= 6.40D-03
 ErrMax= 6.40D-03  0.00D+00 EMaxC= 1.00D-01 BMatC= 1.64D-01 BMatP= 1.76D+00
 IDIUse=3 WtCom= 9.36D-01 WtEn= 6.40D-02
 Coeff-Com: -0.123D-02 0.100D+01
 Coeff-En:   0.000D+00 0.100D+01
 Coeff:     -0.115D-02 0.100D+01
 Gap=     0.208 Goal=   None    Shift=    0.000
 RMSDP=8.52D-04 MaxDP=8.74D-02 DE=-6.85D-01 OVMax= 1.33D-01

 Cycle   3  Pass 1  IDiag  1:
 RMSU=  8.05D-04    CP:  9.57D-01  1.17D+00
 E= -4639.02255961383     Delta-E=       -0.689864250498 Rises=F Damp=F
 DIIS: error= 9.56D-03 at cycle   3 NSaved=   3.
 NSaved= 3 IEnMin= 3 EnMin= -4639.02255961383     IErMin= 2 ErrMin= 6.40D-03
 ErrMax= 9.56D-03  0.00D+00 EMaxC= 1.00D-01 BMatC= 1.41D-01 BMatP= 1.64D-01
 IDIUse=3 WtCom= 9.04D-01 WtEn= 9.56D-02
 Coeff-Com: -0.908D-01 0.519D+00 0.572D+00
 Coeff-En:   0.000D+00 0.000D+00 0.100D+01
 Coeff:     -0.821D-01 0.470D+00 0.613D+00
 Gap=     0.217 Goal=   None    Shift=    0.000
 RMSDP=4.53D-04 MaxDP=3.98D-02 DE=-6.90D-01 OVMax= 5.84D-02

 Cycle   4  Pass 1  IDiag  1:
 RMSU=  2.86D-04    CP:  9.60D-01  1.25D+00  5.78D-01
 E= -4639.12458146021     Delta-E=       -0.102021846380 Rises=F Damp=F
 DIIS: error= 2.69D-03 at cycle   4 NSaved=   4.
 NSaved= 4 IEnMin= 4 EnMin= -4639.12458146021     IErMin= 4 ErrMin= 2.69D-03
 ErrMax= 2.69D-03  0.00D+00 EMaxC= 1.00D-01 BMatC= 2.12D-02 BMatP= 1.41D-01
 IDIUse=3 WtCom= 9.73D-01 WtEn= 2.69D-02
 Coeff-Com: -0.357D-01 0.118D+00 0.321D+00 0.596D+00
 Coeff-En:   0.000D+00 0.000D+00 0.119D+00 0.881D+00
 Coeff:     -0.348D-01 0.115D+00 0.316D+00 0.604D+00
 Gap=     0.210 Goal=   None    Shift=    0.000
 RMSDP=1.57D-04 MaxDP=2.10D-02 DE=-1.02D-01 OVMax= 2.36D-02

 Cycle   5  Pass 1  IDiag  1:
 RMSU=  7.31D-05    CP:  9.59D-01  1.23D+00  6.96D-01  6.49D-01
 E= -4639.14231038326     Delta-E=       -0.017728923056 Rises=F Damp=F
 DIIS: error= 4.67D-04 at cycle   5 NSaved=   5.
 NSaved= 5 IEnMin= 5 EnMin= -4639.14231038326     IErMin= 5 ErrMin= 4.67D-04
 ErrMax= 4.67D-04  0.00D+00 EMaxC= 1.00D-01 BMatC= 1.33D-03 BMatP= 2.12D-02
 IDIUse=3 WtCom= 9.95D-01 WtEn= 4.67D-03
 Coeff-Com: -0.103D-01 0.174D-01 0.105D+00 0.296D+00 0.592D+00
 Coeff-En:   0.000D+00 0.000D+00 0.000D+00 0.000D+00 0.100D+01
 Coeff:     -0.102D-01 0.173D-01 0.105D+00 0.295D+00 0.594D+00
 Gap=     0.208 Goal=   None    Shift=    0.000
 RMSDP=3.94D-05 MaxDP=4.74D-03 DE=-1.77D-02 OVMax= 1.01D-02

 Cycle   6  Pass 1  IDiag  1:
 RMSU=  2.48D-05    CP:  9.59D-01  1.24D+00  6.92D-01  7.04D-01  6.65D-01
 E= -4639.14352035831     Delta-E=       -0.001209975044 Rises=F Damp=F
 DIIS: error= 1.76D-04 at cycle   6 NSaved=   6.
 NSaved= 6 IEnMin= 6 EnMin= -4639.14352035831     IErMin= 6 ErrMin= 1.76D-04
 ErrMax= 1.76D-04  0.00D+00 EMaxC= 1.00D-01 BMatC= 1.06D-04 BMatP= 1.33D-03
 IDIUse=3 WtCom= 9.98D-01 WtEn= 1.76D-03
 Coeff-Com: -0.211D-02-0.155D-03 0.215D-01 0.820D-01 0.279D+00 0.620D+00
 Coeff-En:   0.000D+00 0.000D+00 0.000D+00 0.000D+00 0.000D+00 0.100D+01
 Coeff:     -0.210D-02-0.155D-03 0.215D-01 0.819D-01 0.278D+00 0.620D+00
 Gap=     0.208 Goal=   None    Shift=    0.000
 RMSDP=1.13D-05 MaxDP=1.25D-03 DE=-1.21D-03 OVMax= 1.77D-03

 Cycle   7  Pass 1  IDiag  1:
 RMSU=  8.54D-06    CP:  9.59D-01  1.24D+00  6.94D-01  7.06D-01  7.26D-01
                    CP:  7.77D-01
 E= -4639.14361705445     Delta-E=       -0.000096696140 Rises=F Damp=F
 DIIS: error= 7.79D-05 at cycle   7 NSaved=   7.
 NSaved= 7 IEnMin= 7 EnMin= -4639.14361705445     IErMin= 7 ErrMin= 7.79D-05
 ErrMax= 7.79D-05  0.00D+00 EMaxC= 1.00D-01 BMatC= 1.44D-05 BMatP= 1.06D-04
 IDIUse=1 WtCom= 1.00D+00 WtEn= 0.00D+00
 Coeff-Com:  0.129D-03-0.208D-02-0.285D-02 0.264D-02 0.677D-01 0.309D+00
 Coeff-Com:  0.625D+00
 Coeff:      0.129D-03-0.208D-02-0.285D-02 0.264D-02 0.677D-01 0.309D+00
 Coeff:      0.625D+00
 Gap=     0.208 Goal=   None    Shift=    0.000
 RMSDP=4.25D-06 MaxDP=5.23D-04 DE=-9.67D-05 OVMax= 9.56D-04

 Cycle   8  Pass 1  IDiag  1:
 RMSU=  3.62D-06    CP:  9.59D-01  1.24D+00  6.95D-01  7.08D-01  7.36D-01
                    CP:  8.36D-01  8.52D-01
 E= -4639.14363148132     Delta-E=       -0.000014426878 Rises=F Damp=F
 DIIS: error= 2.29D-05 at cycle   8 NSaved=   8.
 NSaved= 8 IEnMin= 8 EnMin= -4639.14363148132     IErMin= 8 ErrMin= 2.29D-05
 ErrMax= 2.29D-05  0.00D+00 EMaxC= 1.00D-01 BMatC= 1.62D-06 BMatP= 1.44D-05
 IDIUse=1 WtCom= 1.00D+00 WtEn= 0.00D+00
 Coeff-Com:  0.334D-03-0.877D-03-0.482D-02-0.114D-01-0.864D-02 0.487D-01
 Coeff-Com:  0.278D+00 0.699D+00
 Coeff:      0.334D-03-0.877D-03-0.482D-02-0.114D-01-0.864D-02 0.487D-01
 Coeff:      0.278D+00 0.699D+00
 Gap=     0.208 Goal=   None    Shift=    0.000
 RMSDP=1.78D-06 MaxDP=1.71D-04 DE=-1.44D-05 OVMax= 4.31D-04

 Cycle   9  Pass 1  IDiag  1:
 RMSU=  1.29D-06    CP:  9.59D-01  1.24D+00  6.95D-01  7.09D-01  7.41D-01
                    CP:  8.61D-01  9.39D-01  8.65D-01
 E= -4639.14363339504     Delta-E=       -0.000001913715 Rises=F Damp=F
 DIIS: error= 1.00D-05 at cycle   9 NSaved=   9.
 NSaved= 9 IEnMin= 9 EnMin= -4639.14363339504     IErMin= 9 ErrMin= 1.00D-05
 ErrMax= 1.00D-05  0.00D+00 EMaxC= 1.00D-01 BMatC= 3.07D-07 BMatP= 1.62D-06
 IDIUse=1 WtCom= 1.00D+00 WtEn= 0.00D+00
 Coeff-Com:  0.134D-03-0.129D-03-0.213D-02-0.633D-02-0.130D-01-0.173D-01
 Coeff-Com:  0.548D-01 0.353D+00 0.631D+00
 Coeff:      0.134D-03-0.129D-03-0.213D-02-0.633D-02-0.130D-01-0.173D-01
 Coeff:      0.548D-01 0.353D+00 0.631D+00
 Gap=     0.208 Goal=   None    Shift=    0.000
 RMSDP=7.27D-07 MaxDP=5.42D-05 DE=-1.91D-06 OVMax= 1.65D-04

 Cycle  10  Pass 1  IDiag  1:
 RMSU=  5.40D-07    CP:  9.59D-01  1.24D+00  6.95D-01  7.09D-01  7.43D-01
                    CP:  8.67D-01  9.59D-01  9.60D-01  8.59D-01
 E= -4639.14363377416     Delta-E=       -0.000000379123 Rises=F Damp=F
 DIIS: error= 3.27D-06 at cycle  10 NSaved=  10.
 NSaved=10 IEnMin=10 EnMin= -4639.14363377416     IErMin=10 ErrMin= 3.27D-06
 ErrMax= 3.27D-06  0.00D+00 EMaxC= 1.00D-01 BMatC= 2.82D-08 BMatP= 3.07D-07
 IDIUse=1 WtCom= 1.00D+00 WtEn= 0.00D+00
 Coeff-Com:  0.104D-04 0.637D-04-0.289D-03-0.128D-02-0.432D-02-0.148D-01
 Coeff-Com: -0.140D-01 0.522D-01 0.248D+00 0.734D+00
 Coeff:      0.104D-04 0.637D-04-0.289D-03-0.128D-02-0.432D-02-0.148D-01
 Coeff:     -0.140D-01 0.522D-01 0.248D+00 0.734D+00
 Gap=     0.208 Goal=   None    Shift=    0.000
 RMSDP=3.13D-07 MaxDP=1.89D-05 DE=-3.79D-07 OVMax= 1.25D-04

 Cycle  11  Pass 1  IDiag  1:
 RMSU=  2.03D-07    CP:  9.59D-01  1.24D+00  6.95D-01  7.09D-01  7.44D-01
                    CP:  8.69D-01  9.72D-01  9.90D-01  9.85D-01  9.72D-01
 E= -4639.14363382221     Delta-E=       -0.000000048045 Rises=F Damp=F
 DIIS: error= 1.30D-06 at cycle  11 NSaved=  11.
 NSaved=11 IEnMin=11 EnMin= -4639.14363382221     IErMin=11 ErrMin= 1.30D-06
 ErrMax= 1.30D-06  0.00D+00 EMaxC= 1.00D-01 BMatC= 6.33D-09 BMatP= 2.82D-08
 IDIUse=1 WtCom= 1.00D+00 WtEn= 0.00D+00
 Coeff-Com: -0.217D-04 0.526D-04 0.288D-03 0.677D-03 0.776D-03-0.346D-02
 Coeff-Com: -0.160D-01-0.450D-01-0.177D-01 0.336D+00 0.744D+00
 Coeff:     -0.217D-04 0.526D-04 0.288D-03 0.677D-03 0.776D-03-0.346D-02
 Coeff:     -0.160D-01-0.450D-01-0.177D-01 0.336D+00 0.744D+00
 Gap=     0.208 Goal=   None    Shift=    0.000
 RMSDP=1.48D-07 MaxDP=9.29D-06 DE=-4.80D-08 OVMax= 5.76D-05

 Cycle  12  Pass 1  IDiag  1:
 RMSU=  9.54D-08    CP:  9.59D-01  1.24D+00  6.95D-01  7.09D-01  7.44D-01
                    CP:  8.69D-01  9.75D-01  1.00D+00  1.02D+00  1.14D+00
                    CP:  9.33D-01
 E= -4639.14363383332     Delta-E=       -0.000000011118 Rises=F Damp=F
 DIIS: error= 5.12D-07 at cycle  12 NSaved=  12.
 NSaved=12 IEnMin=12 EnMin= -4639.14363383332     IErMin=12 ErrMin= 5.12D-07
 ErrMax= 5.12D-07  0.00D+00 EMaxC= 1.00D-01 BMatC= 1.05D-09 BMatP= 6.33D-09
 IDIUse=1 WtCom= 1.00D+00 WtEn= 0.00D+00
 Coeff-Com: -0.110D-04 0.143D-04 0.174D-03 0.493D-03 0.104D-02 0.345D-03
 Coeff-Com: -0.486D-02-0.275D-01-0.456D-01 0.486D-01 0.345D+00 0.683D+00
 Coeff:     -0.110D-04 0.143D-04 0.174D-03 0.493D-03 0.104D-02 0.345D-03
 Coeff:     -0.486D-02-0.275D-01-0.456D-01 0.486D-01 0.345D+00 0.683D+00
 Gap=     0.208 Goal=   None    Shift=    0.000
 RMSDP=5.94D-08 MaxDP=4.36D-06 DE=-1.11D-08 OVMax= 2.89D-05

 Cycle  13  Pass 1  IDiag  1:
 RMSU=  3.79D-08    CP:  9.59D-01  1.24D+00  6.95D-01  7.09D-01  7.44D-01
                    CP:  8.69D-01  9.76D-01  1.00D+00  1.04D+00  1.18D+00
                    CP:  1.07D+00  9.17D-01
 E= -4639.14363383513     Delta-E=       -0.000000001808 Rises=F Damp=F
 DIIS: error= 1.80D-07 at cycle  13 NSaved=  13.
 NSaved=13 IEnMin=13 EnMin= -4639.14363383513     IErMin=13 ErrMin= 1.80D-07
 ErrMax= 1.80D-07  0.00D+00 EMaxC= 1.00D-01 BMatC= 1.78D-10 BMatP= 1.05D-09
 IDIUse=1 WtCom= 1.00D+00 WtEn= 0.00D+00
 Coeff-Com: -0.863D-06-0.301D-05 0.278D-04 0.972D-04 0.346D-03 0.589D-03
 Coeff-Com:  0.702D-03-0.417D-02-0.169D-01-0.333D-01 0.148D-01 0.299D+00
 Coeff-Com:  0.738D+00
 Coeff:     -0.863D-06-0.301D-05 0.278D-04 0.972D-04 0.346D-03 0.589D-03
 Coeff:      0.702D-03-0.417D-02-0.169D-01-0.333D-01 0.148D-01 0.299D+00
 Coeff:      0.738D+00
 Gap=     0.208 Goal=   None    Shift=    0.000
 RMSDP=2.55D-08 MaxDP=1.58D-06 DE=-1.81D-09 OVMax= 1.08D-05

 Cycle  14  Pass 1  IDiag  1:
 RMSU=  1.29D-08    CP:  9.59D-01  1.24D+00  6.95D-01  7.09D-01  7.44D-01
                    CP:  8.69D-01  9.76D-01  1.01D+00  1.04D+00  1.19D+00
                    CP:  1.13D+00  1.06D+00  9.55D-01
 E= -4639.14363383545     Delta-E=       -0.000000000322 Rises=F Damp=F
 DIIS: error= 5.78D-08 at cycle  14 NSaved=  14.
 NSaved=14 IEnMin=14 EnMin= -4639.14363383545     IErMin=14 ErrMin= 5.78D-08
 ErrMax= 5.78D-08  0.00D+00 EMaxC= 1.00D-01 BMatC= 2.55D-11 BMatP= 1.78D-10
 IDIUse=1 WtCom= 1.00D+00 WtEn= 0.00D+00
 Coeff-Com:  0.160D-05-0.347D-05-0.216D-04-0.554D-04-0.448D-04 0.134D-03
 Coeff-Com:  0.128D-02 0.346D-02 0.136D-02-0.214D-01-0.630D-01 0.107D-02
 Coeff-Com:  0.294D+00 0.783D+00
 Coeff:      0.160D-05-0.347D-05-0.216D-04-0.554D-04-0.448D-04 0.134D-03
 Coeff:      0.128D-02 0.346D-02 0.136D-02-0.214D-01-0.630D-01 0.107D-02
 Coeff:      0.294D+00 0.783D+00
 Gap=     0.208 Goal=   None    Shift=    0.000
 RMSDP=1.08D-08 MaxDP=6.45D-07 DE=-3.22D-10 OVMax= 5.31D-06

 Cycle  15  Pass 1  IDiag  1:
 RMSU=  5.60D-09    CP:  9.59D-01  1.24D+00  6.95D-01  7.09D-01  7.44D-01
                    CP:  8.69D-01  9.76D-01  1.01D+00  1.04D+00  1.20D+00
                    CP:  1.14D+00  1.11D+00  1.09D+00  9.84D-01
 E= -4639.14363383554     Delta-E=       -0.000000000087 Rises=F Damp=F
 DIIS: error= 2.79D-08 at cycle  15 NSaved=  15.
 NSaved=15 IEnMin=15 EnMin= -4639.14363383554     IErMin=15 ErrMin= 2.79D-08
 ErrMax= 2.79D-08  0.00D+00 EMaxC= 1.00D-01 BMatC= 3.96D-12 BMatP= 2.55D-11
 IDIUse=1 WtCom= 1.00D+00 WtEn= 0.00D+00
 Coeff-Com:  0.649D-06-0.759D-06-0.126D-04-0.358D-04-0.637D-04-0.417D-04
 Coeff-Com:  0.428D-03 0.199D-02 0.306D-02-0.276D-02-0.286D-01-0.423D-01
 Coeff-Com:  0.568D-02 0.329D+00 0.733D+00
 Coeff:      0.649D-06-0.759D-06-0.126D-04-0.358D-04-0.637D-04-0.417D-04
 Coeff:      0.428D-03 0.199D-02 0.306D-02-0.276D-02-0.286D-01-0.423D-01
 Coeff:      0.568D-02 0.329D+00 0.733D+00
 Gap=     0.208 Goal=   None    Shift=    0.000
 RMSDP=3.72D-09 MaxDP=2.29D-07 DE=-8.73D-11 OVMax= 1.55D-06

 Error on total polarization charges =  0.05994
 SCF Done:  E(RM062X) =  -4639.14363384     A.U. after   15 cycles
            NFock= 15  Conv=0.37D-08     -V/T= 2.0492
 KE= 4.421405800501D+03 PE=-4.200903054127D+04 EE= 1.734295478696D+04
 SMD-CDS (non-electrostatic) energy       (kcal/mol) =     -13.14
 (included in total energy above)
 Leave Link  502 at Tue Jun 11 18:05:16 2024, MaxMem=  8321499136 cpu:           19657.2 elap:             626.6
 (Enter /opt/packages/gaussian/g16RevC.01/g16/l508.exe)
 QCSCF skips out because SCF is already converged.
 Leave Link  508 at Tue Jun 11 18:05:16 2024, MaxMem=  8321499136 cpu:               0.1 elap:               0.0
 (Enter /opt/packages/gaussian/g16RevC.01/g16/l801.exe)
 DoSCS=F DFT=T ScalE2(SS,OS)=  1.000000  1.000000
 Range of M.O.s used for correlation:     1  1369
 NBasis=  1369 NAE=   290 NBE=   290 NFC=     0 NFV=     0
 NROrb=   1369 NOA=   290 NOB=   290 NVA=  1079 NVB=  1079
 Leave Link  801 at Tue Jun 11 18:05:16 2024, MaxMem=  8321499136 cpu:               1.0 elap:               0.1
 (Enter /opt/packages/gaussian/g16RevC.01/g16/l1101.exe)
 Using compressed storage, NAtomX=   117.
 Will process    118 centers per pass.
 PrsmSu:  requested number of processors reduced to:  21 ShMem   1 Linda.
   1 Symmetry operations used in ECPInt.
 ECPInt:  NShTT=  185745 NPrTT=  697989 LenC2=  129968 LenP2D=  287729.
 LDataN:  DoStor=T MaxTD1= 8 Len=  415
 Number of processors reduced to   4 by ecpmxn.
 R6Disp: Adding Grimme-D3 dispersion energy 1st derivatives to the gradient.
 Leave Link 1101 at Tue Jun 11 18:05:34 2024, MaxMem=  8321499136 cpu:             414.8 elap:              17.4
 (Enter /opt/packages/gaussian/g16RevC.01/g16/l1102.exe)
 Symmetrizing basis deriv contribution to polar:
 IMax=3 JMax=2 DiffMx= 0.00D+00
 Leave Link 1102 at Tue Jun 11 18:05:35 2024, MaxMem=  8321499136 cpu:               7.8 elap:               0.3
 (Enter /opt/packages/gaussian/g16RevC.01/g16/l1110.exe)
 Forming Gx(P) for the SCF density, NAtomX=   117.
 Integral derivatives from FoFJK, PRISM(SPDF).
 Do as many integral derivatives as possible in FoFJK.
 G2DrvN: MDV=    8321486949.
 G2DrvN: will do    59 centers at a time, making    2 passes.
 G2DrvN:  IPasSy=1 do centers    0 through   58.
 Calling FoFCou, ICntrl=  3107 FMM=T I1Cent=   0 AccDes= 0.00D+00.
 FoFJK:  IHMeth= 1 ICntrl=    3107 DoSepK=F KAlg= 0 I1Cent=           0 FoldK=F
 IRaf=         0 NMat=       1 IRICut=       1 DoRegI=T DoRafI=F ISym2E= 0 IDoP0=0 IntGTp=1.
 FoFCou: FMM=T IPFlag=           0 FMFlag=      100000 FMFlg1=        2001
         NFxFlg=           0 DoJE=F BraDBF=F KetDBF=F FulRan=T
         wScrn=  0.000000 ICntrl=      3107 IOpCl=  0 I1Cent=           0 NGrid=           0
         NMat0=    1 NMatS0=      1 NMatT0=    0 NMatD0=    1 NMtDS0=    0 NMtDT0=    0
 Symmetry not used in FoFCou.
 FMM levels:  10  Number of levels for PrismC:   9
 Defaulting to unpruned grid for atomic number  53.
 Defaulting to unpruned grid for atomic number  53.
 Defaulting to unpruned grid for atomic number  53.
 Defaulting to unpruned grid for atomic number  53.
 Defaulting to unpruned grid for atomic number  53.
 Defaulting to unpruned grid for atomic number  53.
 Defaulting to unpruned grid for atomic number  53.
 Defaulting to unpruned grid for atomic number  53.
 Defaulting to unpruned grid for atomic number  53.
 Defaulting to unpruned grid for atomic number  53.
 Defaulting to unpruned grid for atomic number  53.
 Defaulting to unpruned grid for atomic number  53.
 Defaulting to unpruned grid for atomic number  53.
 Defaulting to unpruned grid for atomic number  53.
 Defaulting to unpruned grid for atomic number  53.
 Defaulting to unpruned grid for atomic number  53.
 Defaulting to unpruned grid for atomic number  53.
 Defaulting to unpruned grid for atomic number  53.
 Defaulting to unpruned grid for atomic number  53.
 Defaulting to unpruned grid for atomic number  53.
 Defaulting to unpruned grid for atomic number  53.
 Defaulting to unpruned grid for atomic number  53.
 Defaulting to unpruned grid for atomic number  53.
 Defaulting to unpruned grid for atomic number  53.
 Defaulting to unpruned grid for atomic number  53.
 Defaulting to unpruned grid for atomic number  53.
 Defaulting to unpruned grid for atomic number  53.
 Defaulting to unpruned grid for atomic number  53.
 Defaulting to unpruned grid for atomic number  53.
 Defaulting to unpruned grid for atomic number  53.
 Defaulting to unpruned grid for atomic number  53.
 Defaulting to unpruned grid for atomic number  53.
 G2DrvN:  IPasSy=1 do centers   59 through  117.
 Calling FoFCou, ICntrl=  3107 FMM=T I1Cent=   0 AccDes= 0.00D+00.
 NEqPCM:  Using equilibrium solvation (IEInf=0, Eps=   5.5205, EpsInf=   1.9160)
 G2PCM: DoFxE=T DoFxN=T DoGrad=T DoDP/DQ/DG/TGxP=FFFF NFrqRd=   0 IEInf=0 SqF1=F DoCFld=F IF1Alg=4.
 GePol: Maximum number of non-zero 1st derivatives   =     300
 End of G2Drv F.D. properties file   721 does not exist.
 End of G2Drv F.D. properties file   722 does not exist.
 End of G2Drv F.D. properties file   788 does not exist.
 Leave Link 1110 at Tue Jun 11 18:40:23 2024, MaxMem=  8321499136 cpu:           66476.1 elap:            2088.2
 (Enter /opt/packages/gaussian/g16RevC.01/g16/l1002.exe)
 Minotr:  Closed shell wavefunction.
          IDoAtm=11111111111111111111111111111111111111111111111111
          IDoAtm=11111111111111111111111111111111111111111111111111
          IDoAtm=11111111111111111
 NEqPCM:  Using equilibrium solvation (IEInf=0, Eps=   5.5205, EpsInf=   1.9160)
          Direct CPHF calculation.
          Differentiating once with respect to electric field.
                with respect to dipole field.
          Differentiating once with respect to nuclear coordinates.
          Requested convergence is 1.0D-08 RMS, and 1.0D-07 maximum.
          Secondary convergence is 1.0D-12 RMS, and 1.0D-12 maximum.
          NewPWx=T KeepS1=F KeepF1=F KeepIn=T MapXYZ=F SortEE=F KeepMc=T.
 Defaulting to unpruned grid for atomic number  53.
        36001 words used for storage of precomputed grid.
 Two-electron integral symmetry not used.
          MDV=    8321499136 using IRadAn=       1.
          Solving linear equations simultaneously, MaxMat=      96.
 FoF2E skips out because all densities are zero.
 CalDSu exits because no D1Ps are significant.
 FoFJK:  IHMeth= 1 ICntrl=       0 DoSepK=F KAlg= 0 I1Cent=           0 FoldK=F
 IRaf= 680000000 NMat=      96 IRICut=       1 DoRegI=T DoRafI=F ISym2E= 0 IDoP0=3 IntGTp=3.
 Defaulting to unpruned grid for atomic number  53.
 Defaulting to unpruned grid for atomic number  53.
 Defaulting to unpruned grid for atomic number  53.
 Defaulting to unpruned grid for atomic number  53.
 Defaulting to unpruned grid for atomic number  53.
 Defaulting to unpruned grid for atomic number  53.
 Defaulting to unpruned grid for atomic number  53.
 Defaulting to unpruned grid for atomic number  53.
 Defaulting to unpruned grid for atomic number  53.
 Defaulting to unpruned grid for atomic number  53.
 Defaulting to unpruned grid for atomic number  53.
 Defaulting to unpruned grid for atomic number  53.
 Defaulting to unpruned grid for atomic number  53.
 Defaulting to unpruned grid for atomic number  53.
 Defaulting to unpruned grid for atomic number  53.
 Defaulting to unpruned grid for atomic number  53.
 Defaulting to unpruned grid for atomic number  53.
 Defaulting to unpruned grid for atomic number  53.
 Defaulting to unpruned grid for atomic number  53.
 Defaulting to unpruned grid for atomic number  53.
 Defaulting to unpruned grid for atomic number  53.
 Defaulting to unpruned grid for atomic number  53.
 Defaulting to unpruned grid for atomic number  53.
 Defaulting to unpruned grid for atomic number  53.
 Defaulting to unpruned grid for atomic number  53.
 Defaulting to unpruned grid for atomic number  53.
 Defaulting to unpruned grid for atomic number  53.
 Defaulting to unpruned grid for atomic number  53.
 Defaulting to unpruned grid for atomic number  53.
 Defaulting to unpruned grid for atomic number  53.
 Defaulting to unpruned grid for atomic number  53.
 Defaulting to unpruned grid for atomic number  53.
          There are   354 degrees of freedom in the 1st order CPHF.  IDoFFX=6 NUNeed=     3.
    354 vectors produced by pass  0 Test12= 3.13D-13 1.00D-09 XBig12= 7.03D+02 7.89D+00.
 AX will form    96 AO Fock derivatives at one time.
    354 vectors produced by pass  1 Test12= 3.13D-13 1.00D-09 XBig12= 6.83D+01 8.42D-01.
    354 vectors produced by pass  2 Test12= 3.13D-13 1.00D-09 XBig12= 1.66D+00 1.18D-01.
    353 vectors produced by pass  3 Test12= 3.13D-13 1.00D-09 XBig12= 2.83D-02 1.12D-02.
    351 vectors produced by pass  4 Test12= 3.13D-13 1.00D-09 XBig12= 2.39D-04 8.95D-04.
    351 vectors produced by pass  5 Test12= 3.13D-13 1.00D-09 XBig12= 1.31D-06 5.24D-05.
    262 vectors produced by pass  6 Test12= 3.13D-13 1.00D-09 XBig12= 5.77D-09 4.28D-06.
     41 vectors produced by pass  7 Test12= 3.13D-13 1.00D-09 XBig12= 2.10D-11 1.87D-07.
      3 vectors produced by pass  8 Test12= 3.13D-13 1.00D-09 XBig12= 8.10D-14 1.55D-08.
      3 vectors produced by pass  9 Test12= 3.13D-13 1.00D-09 XBig12= 5.28D-15 1.52D-09.
      3 vectors produced by pass 10 Test12= 3.13D-13 1.00D-09 XBig12= 1.21D-14 3.72D-09.
      3 vectors produced by pass 11 Test12= 3.13D-13 1.00D-09 XBig12= 8.99D-15 2.36D-09.
      3 vectors produced by pass 12 Test12= 3.13D-13 1.00D-09 XBig12= 3.09D-14 4.49D-09.
      3 vectors produced by pass 13 Test12= 3.13D-13 1.00D-09 XBig12= 1.26D-14 2.49D-09.
      3 vectors produced by pass 14 Test12= 3.13D-13 1.00D-09 XBig12= 1.31D-14 3.24D-09.
      3 vectors produced by pass 15 Test12= 3.13D-13 1.00D-09 XBig12= 8.87D-15 1.93D-09.
      3 vectors produced by pass 16 Test12= 3.13D-13 1.00D-09 XBig12= 8.39D-15 2.56D-09.
      3 vectors produced by pass 17 Test12= 3.13D-13 1.00D-09 XBig12= 1.25D-14 3.02D-09.
      3 vectors produced by pass 18 Test12= 3.13D-13 1.00D-09 XBig12= 1.10D-14 3.51D-09.
      3 vectors produced by pass 19 Test12= 3.13D-13 1.00D-09 XBig12= 6.98D-15 2.43D-09.
      2 vectors produced by pass 20 Test12= 3.13D-13 1.00D-09 XBig12= 4.26D-15 2.35D-09.
 InvSVY:  IOpt=1 It=  1 EMax= 1.97D-14
 Solved reduced A of dimension  2458 with   354 vectors.
 FullF1:  Do perturbations      1 to       3.
 Isotropic polarizability for W=    0.000000     1057.21 Bohr**3.
 End of Minotr F.D. properties file   721 does not exist.
 End of Minotr F.D. properties file   722 does not exist.
 End of Minotr F.D. properties file   788 does not exist.
 Leave Link 1002 at Tue Jun 11 20:39:10 2024, MaxMem=  8321499136 cpu:          226538.0 elap:            7125.8
 (Enter /opt/packages/gaussian/g16RevC.01/g16/l601.exe)
 Copying SCF densities to generalized density rwf, IOpCl= 0 IROHF=0.
 Hyperfine terms turned off by default for NAtoms > 100.

 **********************************************************************

            Population analysis using the SCF Density.

 **********************************************************************

 Alpha  occ. eigenvalues --  -90.09365 -90.08917 -25.28567 -25.28531 -25.28084
 Alpha  occ. eigenvalues --  -25.28066 -25.28062 -25.28035 -25.26725 -19.63850
 Alpha  occ. eigenvalues --  -19.61602 -19.61104 -19.61036 -19.60814 -14.82591
 Alpha  occ. eigenvalues --  -14.77532 -14.75772 -10.80829 -10.80801 -10.66894
 Alpha  occ. eigenvalues --  -10.64778 -10.64551 -10.60451 -10.60353 -10.60343
 Alpha  occ. eigenvalues --  -10.60176 -10.60144 -10.60064 -10.59948 -10.59886
 Alpha  occ. eigenvalues --  -10.59817 -10.59742 -10.59712 -10.59605 -10.59414
 Alpha  occ. eigenvalues --  -10.59225 -10.58989 -10.58843 -10.58134 -10.58125
[...]
 00000294,0.00001605,0.00002205,-0.00001661,0.00000246,0.00000637,0.000
 00984,0.00000121,0.00000436,-0.00000559,0.00000168,-0.00000333,0.00000
 666,-0.00000389,-0.00000242,0.00000245,0.00000470,-0.00000302,0.000006
 43,-0.00000662,-0.00000700,0.00000013,0.00011046,-0.00003122,0.0000887
 8,-0.00000748,-0.00000159,0.00002658,-0.00000718,0.00010642,-0.0000090
 4,0.00006263,0.00017707,-0.00004763,0.00009536,0.00001814,-0.00000159,
 -0.00002262,0.00006500,0.00007495,0.00004807,-0.00002889,-0.00008240,-
 0.00007068,-0.00010269,-0.00004810,0.00010141,0.00005050,0.00003743,-0
 .00003808,-0.00001452,0.00000378,0.00000407,0.00000666,0.00000289,0.00
 001271,0.00000324,0.00000011,0.00005573,0.00009688,0.00006852,0.000251
 91,0.00017890,0.00003244,-0.00001273,0.00000241,-0.00001268,0.00000384
 ,0.00001632,0.00000971,-0.00035872,-0.00024813,-0.00007400,-0.00000739
 ,0.00006580,0.00012760,-0.00001954,-0.00006290,-0.00007377,-0.00005540
 ,0.00000471,0.00003427,0.00001941,0.00000282,0.00000915,0.00004189,-0.
 00000574,-0.00000905,-0.00000868,0.00001795,-0.00000701,-0.00000826,0.
 00001200,-0.00000526,-0.00000987,0.00000519,0.00000047,0.00001885,-0.0
 0001821,0.00000112,0.00000365,-0.00000102,0.00000223,0.00000956,0.0000
 0291,-0.00000093,0.00000290,-0.00001491,0.00000237,0.00000200,0.000000
 30,-0.00000201,-0.00000141,0.00000217,0.00000207,0.00000282,0.00000070
 ,-0.00000280,-0.00000304,-0.00000227,-0.00000145,0.00000146,0.00000156
 ,-0.00000285,-0.00067464,0.00007725,-0.00007156,0.00018303,0.00003594,
 -0.00006278,0.00039466,-0.00001964,-0.00005757,-0.00020739,0.00001825,
 -0.00015773,0.00004709,-0.00002286,0.00007694,0.00008531,-0.00004823,0
 .00005058,0.00019693,-0.00017634,0.00018100,0.00031517,0.00028700,-0.0
 0003082,-0.00031069,-0.00022518,0.00046046,0.00000028,0.00000569,-0.00
 000359,0.00001678,-0.00000593,0.00000358,-0.00001247,0.00001405,-0.000
 00323,0.00000142,-0.00000872,0.00000325,0.00000217,-0.00000078,0.00000
 232,0.00000114,0.00000392,0.00000079,-0.00000117,0.00000404,-0.0000010
 5,0.00000016,-0.00000565,0.00000109,0.00000614,-0.00000068,0.00000035,
 -0.00000168,-0.00000030,-0.00000138,0.00000074,-0.00000019,-0.00000113
 ,0.00000065,-0.00000052,-0.00000101,-0.00457174,-0.00629353,-0.0054991
 1,0.00194250,0.00105351,-0.00167620,0.04100536,0.01335642,-0.02978219,
 0.00031098,-0.00006000,-0.00059418,-0.00011357,-0.00031828,-0.00072694
 ,0.00111361,0.00059293,-0.00129721,0.00055134,0.00038487,-0.00010923,-
 0.00002516,-0.00005409,-0.00007490,-0.00008128,-0.00104835,-0.00258524
 ,-0.00007149,-0.00013899,-0.00014644,-0.00002738,-0.00000276,-0.000014
 12,0.00000515,0.00000312,0.00000535,0.00001258,0.00000066,0.00000139,0
 .00000763,-0.00000235,0.00000662,0.09865959,0.02897778,-0.17472498,0.0
 1209083,0.02777916,0.00277734,-0.14825674,-0.06047119,0.19248305,0.000
 06356,-0.00011600,-0.00004414,-0.00014625,0.00007637,0.00007665,0.0002
 5035,-0.00081213,-0.00006283,-0.00057103,0.00047822,0.00003903,0.00057
 602,-0.00030993,-0.00010430,-0.00008997,0.00009241,0.00011152,0.000014
 62,-0.00001768,0.00002436,-0.00002720,0.00001276,0.00000462,0.00000360
 ,0.00003673,-0.00004220,-0.00000141,-0.00000119,0.00000883,0.00000200,
 0.00001064,0.00000996,0.00000601,0.00000148,0.00000706,-0.00000187,0.0
 0000255,0.00000689,-0.00000191,0.00000537,0.00000379,0.00000107,0.0000
 0002,-0.00000123,0.00000905,-0.00004215,-0.00006311,0.00000670,0.00001
 597,0.00000331,-0.00000541,0.00000303,0.00002400,-0.00001879,-0.000007
 01,-0.00000198,0.00000015,0.00000463,0.00001145,0.00001165,-0.00000501
 ,-0.00000251,-0.00000635,0.00001124,-0.00000168,-0.00000027,0.00000453
 ,-0.00001343,0.00000106,-0.00000039,0.00000799,0.00000012,-0.00000257,
 -0.00000300,-0.00000247,-0.00000542,-0.00000136,0.00000022,-0.00000236
 ,-0.00000314,-0.00002412,0.00002169,0.00008092,-0.00060629,0.00122834,
 0.00009698,-0.00001192,-0.00003166,-0.00001869,0.00058696,0.00001970,0
 .00009709,-0.00049593,-0.00037869,0.00008812,0.00006668,-0.00005833,-0
 .00006941,0.00002681,0.00004934,0.00004719,-0.00001195,-0.00000854,0.0
 0004484,-0.00002868,0.00001539,0.00000241,0.00000565,0.00000090,0.0000
 0163,0.00004434,-0.00006703,0.00001547,-0.00001845,-0.00000904,-0.0000
 1516,0.00001317,0.00000565,0.00001366,-0.00001262,0.00001358,-0.000015
 19,0.00000421,-0.00000441,0.00000242,-0.00000561,0.00000584,-0.0000129
 2,-0.00000440,-0.00000567,0.00000165,-0.00032365,0.00012166,-0.0001022
 6,-0.00004605,0.00004377,-0.00000863,0.00003281,-0.00013825,-0.0002470
 8,0.00010072,0.00019371,-0.00014604,0.00000188,-0.00001097,-0.00000242
 ,0.00001357,-0.00000043,0.00000232,0.00000356,0.00000395,-0.00001865,0
 .00003162,-0.00000882,0.00008011,-0.00002189,-0.00002338,0.00002743,0.
 00000299,-0.00000569,0.00000373,-0.00000324,0.00000115,-0.00000502,-0.
 00000386,0.00000531,-0.00000379,0.00000625,0.00004686,0.00001375,0.000
 06188,0.00007062,-0.00003743,-0.00001101,0.00002702,-0.00001304,-0.000
 00356,0.00000432,-0.00000998,0.00029472,0.00024867,0.00005298,-0.00001
 867,-0.00006532,0.00001446,-0.00009269,0.00012595,-0.00009053,0.000006
 70,0.00000622,-0.00001615,-0.00002465,-0.00001638,0.00002959,-0.000017
 45,0.00001610,-0.00000555,0.00002101,-0.00003628,0.00000213,0.00000808
 ,-0.00000190,-0.00000135,-0.00000870,-0.00001015,0.00001401,-0.0000170
 9,0.00000919,0.00000376,0.00000711,-0.00000619,0.00000238,0.00000046,0
 .00000023,0.00000196,-0.00000471,0.00000952,-0.00000871,-0.00000231,-0
 .00000344,0.,-0.00000426,-0.00000605,0.00000505,-0.00000283,-0.0000017
 9,-0.00000010,-0.00000085,-0.00000513,0.00000014,-0.00000223,-0.000002
 45,0.00000014,0.00004214,0.00020351,-0.00039031,-0.00006135,-0.0000846
 5,0.00013787,-0.00002401,-0.00006425,0.00012085,0.00031070,0.00009561,
 -0.00027286,-0.00020552,-0.00005423,0.00016759,-0.00009427,-0.00003807
 ,0.00007924,-0.00008801,-0.00019767,0.00017762,0.00044288,-0.00001401,
 0.00114882,-0.00088347,-0.00043735,0.00139387,-0.00000022,0.00000502,-
 0.00000069,-0.00000820,-0.00000301,0.00000401,0.00000693,-0.00000302,-
 0.00000043,0.00000712,0.00000339,0.00000275,-0.00000454,-0.00000256,0.
 00000282,-0.00000601,-0.00000068,0.00000517,0.00000201,-0.00000351,-0.
 00000913,-0.00000164,0.00000241,0.00000085,-0.00000197,-0.00000178,0.0
 0000240,0.00000366,-0.00000207,-0.00000315,-0.00000124,-0.00000026,-0.
 00000134,-0.00000051,0.00000070,-0.00000154,-0.00279746,-0.00166039,-0
 .00013881,0.00060417,-0.00111055,-0.00068257,-0.01303200,0.00408762,-0
 .01739450,0.00022137,0.00005875,-0.00047303,0.00000982,-0.00003844,-0.
 00022382,0.00130041,0.00049796,-0.00190944,0.00055723,-0.00084184,-0.0
 0004929,-0.00005320,0.00014756,-0.00010588,-0.00004058,0.00077875,0.00
 009795,-0.00002602,-0.00015777,-0.00026206,0.00002905,0.00001610,-0.00
 002788,-0.00000681,-0.00000111,0.00000854,-0.00001582,-0.00000377,0.00
 000594,-0.00000448,-0.00000832,0.00001185,-0.20919123,0.03438580,-0.09
 718688,-0.01574611,0.04039326,-0.01481596,-0.09093519,-0.00059093,-0.0
 0272605,0.33010780,-0.00004149,0.00012038,0.00002625,-0.00000102,-0.00
 003138,-0.00010823,-0.00006877,0.00025990,-0.00006342,0.00021025,-0.00
 015920,0.00001903,-0.00028530,0.00009444,-0.00003019,0.00009061,-0.000
 04512,0.00002971,-0.00000252,-0.00000367,-0.00000368,0.00001762,0.0000
 0199,-0.00000710,-0.00001209,-0.00002439,0.00002081,0.00000992,0.00000
 531,0.00000058,0.00001032,-0.00000450,-0.00001240,0.00000104,-0.000002
 99,0.00000438,-0.00000293,0.00000028,-0.00000367,-0.00000309,-0.000000
 14,-0.00000122,-0.00000627,0.00000579,0.00000108,-0.00002417,0.0000206
 9,0.00005231,-0.00000292,-0.00001065,-0.00000136,0.00000050,0.00000453
 ,-0.00001137,-0.00000136,0.00000230,-0.00000170,-0.00000073,0.00000064
 ,-0.00000142,-0.00000604,0.00000143,0.00000152,0.00000827,-0.00000502,
 0.00000404,-0.00000119,-0.00000314,0.00001280,0.00000010,0.00000289,-0
 .00000229,0.00000137,0.00000017,0.00000054,-0.00000132,0.00000078,-0.0
 0000189,0.00000228,0.00000277,-0.00000019,0.00002778,-0.00000793,-0.00
 005541,0.00009165,-0.00040730,0.00003189,0.00004884,-0.00000749,0.0000
 0912,-0.00003291,-0.00010179,0.00005689,0.00033721,0.00005361,-0.00002
 276,-0.00003344,0.00002389,0.00003559,-0.00001203,-0.00003321,-0.00003
 159,-0.00000259,-0.00000413,-0.00003139,0.00001461,-0.00000673,-0.0000
 0176,-0.00000495,0.00000064,-0.00000024,-0.00002123,0.00002571,-0.0000
 0591,0.00001163,0.00000525,0.00000890,-0.00000685,-0.00000457,-0.00000
 329,0.00000589,-0.00000611,0.00000783,0.00000080,0.00000361,-0.0000019
 4,0.00000482,-0.00000345,0.00000835,0.00000261,0.00000332,-0.00000274,
 0.00016651,-0.00004185,0.00007396,0.00002446,-0.00000614,0.00001368,-0
 .00010679,0.00014610,0.00017460,-0.00009395,-0.00019644,0.00009371,0.0
 0000614,0.00000112,-0.00000500,-0.00001031,0.00001195,0.00001031,-0.00
 000010,-0.00001228,-0.00001833,-0.00002185,-0.00001008,0.00004215,0.00
 002823,0.00000306,-0.00000978,-0.00001520,0.00000345,-0.00000307,-0.00
 000278,-0.00000317,0.00000115,-0.00000331,-0.00000381,0.00000038,-0.00
 001844,0.00002064,0.00003083,0.00014436,0.00003135,-0.00011145,0.00000
 604,0.00001026,0.00001746,0.00000314,-0.00000112,0.00000187,0.00009572
 ,0.00011777,0.00004285,-0.00005867,-0.00001364,0.00000360,0.00007154,0
 .00012453,-0.00002186,0.00002597,0.00000151,-0.00001326,0.00000605,0.0
 0001385,-0.00000192,-0.00001222,-0.00000627,0.00000486,-0.00000885,0.0
 0001116,0.00000188,0.00000024,-0.00000580,0.00000204,0.00001057,0.0000
 0593,-0.00000454,-0.00000020,0.00000519,-0.00000191,-0.00000575,0.0000
 0519,-0.00000033,-0.00000346,-0.00000070,0.00000196,0.00000109,-0.0000
 0015,-0.00000023,-0.00000033,0.00000084,-0.00000120,0.00000321,0.00000
 284,-0.00000200,-0.00000021,-0.00000026,-0.00000010,0.00000138,0.00000
 260,-0.00000182,0.00000013,-0.00000009,-0.00000030,0.00007028,-0.00026
 426,0.00004975,-0.00000521,0.00006456,-0.00000990,-0.00005817,0.000136
 52,0.00001172,-0.00009672,-0.00014275,0.00004092,0.00005435,0.00006431
 ,-0.00004357,0.00001853,0.00006314,-0.00002633,0.00004572,0.00022533,-
 0.00007557,-0.00007316,-0.00015011,0.00059525,-0.00093714,-0.00019528,
 0.00084481,0.00000010,-0.00000557,0.00000359,-0.00000214,0.00000595,-0
 .00000161,0.00000245,-0.00000667,0.00000075,-0.00000662,0.00000442,-0.
 00000038,0.00000299,0.00000374,-0.00000083,0.00000387,-0.00000271,-0.0
 0000156,-0.00000131,-0.00000128,0.00000235,0.00000169,0.00000147,-0.00
 000028,-0.00000188,0.00000249,-0.00000048,-0.00000246,0.00000215,0.000
 00075,0.00000023,0.00000011,0.00000013,-0.00000038,-0.00000048,0.00000
 032,-0.00088523,-0.00066712,-0.00079250,0.00013384,-0.00046334,0.00016
 722,-0.00582932,0.01094394,-0.00770451,-0.00007915,-0.00012843,-0.0002
 6566,0.00003950,-0.00004690,-0.00001334,0.00028460,0.00044930,0.000967
 97,0.00092823,-0.00025220,-0.00010883,-0.00005480,0.00006511,-0.000016
 69,-0.00026333,0.00028840,-0.00002962,-0.00003339,-0.00000353,0.000032
 38,-0.00001044,-0.00001819,0.00000449,0.00000224,0.00000625,0.00000075
 ,0.00000598,0.00000391,-0.00000131,0.00000174,0.00000608,-0.00000349,0
 .03338024,-0.08136620,0.02180959,0.05615747,-0.04802974,0.03336615,-0.
 00716953,0.01314837,-0.00386921,-0.07617897,0.10627425,-0.00005373,0.0
 0009877,-0.00003312,-0.00018736,-0.00017279,0.00007348,0.00019134,-0.0
 0047213,-0.00014064,-0.00024348,0.00020772,0.00006398,0.00020233,-0.00
 016236,-0.00017530,0.00005575,0.00003117,0.00020249,0.00002494,-0.0000
 1123,0.00001571,-0.00000696,0.00000072,0.00000295,0.00000046,0.0000158
 6,-0.00001496,0.00000366,-0.00001055,0.00001170,0.00000921,0.00000885,
 0.00001944,0.00000833,0.00000406,-0.00000082,-0.00000720,0.00000369,0.
 00000387,-0.00000445,0.00000560,0.00000135,-0.00000346,0.00000142,-0.0
 0000396,0.00001881,0.00000617,-0.00010112,0.00000543,0.00000940,-0.000
 00026,0.00000168,-0.00000197,0.00000461,-0.00001994,-0.00000807,-0.000
 00918,0.00000680,-0.00000201,0.00000184,0.00000600,-0.00000381,0.00000
 023,0.00000453,0.00000533,0.00000106,-0.00000192,0.00000815,0.00000265
 ,-0.00000017,-0.00000624,0.00000161,0.00000184,-0.00000002,-0.00000043
 ,-0.00000550,-0.00000617,0.00000568,-0.00000137,0.00000021,-0.00000037
 ,-0.00002582,-0.00000192,0.00009509,0.00007302,0.00061135,-0.00005570,
 0.00009729,-0.00001425,0.00003082,0.00014751,0.00003858,-0.00012813,0.
 00010242,-0.00046967,0.00017728,0.00002348,-0.00002116,-0.00001837,0.0
 0001491,0.00000160,-0.00000318,0.00000241,-0.00000253,-0.00000949,-0.0
 0001022,0.00000322,-0.00000192,0.00000185,0.00000385,-0.00000137,0.000
 04277,-0.00002244,-0.00000539,-0.00000805,0.00000077,0.00000051,0.0000
 0895,0.00000662,0.00000288,-0.00000624,0.00000520,-0.00000256,-0.00000
 016,-0.00000462,0.00000363,0.00000165,0.00000021,-0.00000111,-0.000008
 57,-0.00001011,0.00000080,-0.00008712,0.00004592,0.00002454,-0.0000354
 7,0.00003038,0.00002147,-0.00003505,0.00011365,-0.00004220,0.00011272,
 0.00026248,-0.00012839,0.00010613,0.00002053,0.00000423,-0.00002772,0.
 00006488,0.00008408,0.00004809,-0.00001892,-0.00008831,-0.00008346,-0.
 00005026,0.00001323,0.00011055,0.00003237,0.00004321,-0.00003199,-0.00
 002119,0.00001221,-0.00000075,0.00000742,-0.00000101,0.00000998,0.0000
 0633,-0.00000280,0.00005751,0.00011099,0.00008722,0.00036230,0.0001295
 8,0.00003721,-0.00002017,0.00003204,-0.00001183,0.00000291,0.00002005,
 0.00000425,-0.00034865,-0.00029451,-0.00006679,0.00001954,0.00008198,0
 .00013191,-0.00004909,0.00005979,-0.00010264,-0.00004193,0.00001051,0.
 00002663,0.00000332,-0.00000534,0.00002836,0.00002494,0.00000250,-0.00
 000973,0.00000445,-0.00000580,-0.00000454,-0.00000334,0.00000834,-0.00
 000553,-0.00001228,0.00000021,0.00000693,0.00000667,-0.00001006,0.0000
 0273,0.00000659,-0.00000371,0.00000321,0.00000772,0.00000191,0.0000007
 1,0.00000053,-0.00000820,-0.00000235,0.00000018,-0.00000171,-0.0000018
 1,-0.00000311,-0.00000072,0.00000430,0.00000061,-0.00000036,-0.0000025
 3,-0.00000241,-0.00000402,-0.00000172,0.00000010,-0.00000018,-0.000002
 32,-0.00068449,0.00015506,-0.00027672,0.00014765,-0.00000098,0.0000140
 9,0.00042560,-0.00005426,-0.00000452,-0.00000662,0.00004561,-0.0003474
 7,-0.00009021,-0.00004120,0.00019157,0.00002091,-0.00005738,0.00010042
 ,0.00014615,-0.00026789,0.00028654,-0.00000384,0.00033340,-0.00085595,
 0.00117399,0.00130028,-0.00176948,0.00000031,0.00000772,-0.00000308,0.
 00000884,-0.00000627,0.00000535,-0.00000560,0.00000866,-0.00000286,0.0
 0000492,-0.00000427,0.00000448,-0.00000065,-0.00000173,0.00000369,-0.0
 0000239,0.00000224,0.00000379,0.00000009,0.00000083,-0.00000628,-0.000
 00054,-0.00000277,0.00000139,0.00000353,-0.00000148,0.00000182,0.00000
 067,-0.00000132,-0.00000310,-0.00000014,-0.00000037,-0.00000180,0.0000
 0014,-0.00000002,-0.00000180,-0.00182607,-0.00126569,0.00123550,0.0003
 1395,-0.00083571,0.00049999,-0.04236450,0.00446334,-0.02388162,-0.0007
 6469,-0.00056317,-0.00057915,0.00005364,0.00001821,-0.00015175,0.00286
 335,0.00264820,-0.00439772,0.00078803,-0.00240444,-0.00092869,-0.00010
 044,0.00015148,-0.00011535,-0.00057666,0.00065777,-0.00007401,0.000064
 36,-0.00039796,-0.00047376,-0.00000431,0.00000447,-0.00002970,-0.00000
 007,0.00000330,0.00001058,0.00000038,-0.00000113,0.00000494,0.00000348
 ,-0.00000618,0.00001256,-0.09347792,0.02115268,-0.14782830,-0.01378615
 ,0.02324194,0.00562563,0.01369569,-0.00339452,0.02154080,0.13341468,-0
 .04517786,0.15211165\\-0.00000031,-0.00000008,0.00000042,0.00000123,0.
 00000196,-0.00000049,-0.00000043,0.00000057,0.00000014,0.00000103,-0.0
 0000011,-0.00000003,0.00000100,0.00000016,0.00000033,0.00000023,-0.000
 00003,0.00000015,0.00000065,0.00000046,0.00000048,-0.00000076,0.000000
 03,0.00000099,-0.00000103,-0.00000022,-0.00000029,-0.00000137,-0.00000
 067,0.00000138,-0.00000109,-0.00000077,0.00000085,-0.00000076,0.000000
 31,0.00000051,-0.00000145,-0.00000028,0.00000031,-0.00000137,-0.000000
 28,0.00000108,-0.00000047,0.00000035,0.00000115,-0.00000042,0.00000016
 ,0.00000146,0.00000019,-0.00000036,0.00000075,-0.00000134,-0.00000021,
 -0.00000051,-0.00000195,0.00000020,-0.00000037,-0.00000129,0.00000055,
 -0.00000070,-0.00000040,-0.00000047,-0.00000013,-0.00000061,0.,0.00000
 032,-0.00000080,-0.00000026,0.00000068,-0.00000186,-0.00000112,-0.0000
 0064,-0.00000036,-0.00000032,-0.00000060,-0.00000137,-0.00000044,0.,-0
 .00000087,-0.00000012,-0.00000074,0.00000017,0.00000024,0.00000040,0.0
 0000111,0.00000035,0.00000031,0.00000094,0.00000032,0.00000092,0.00000
 063,0.00000006,0.00000114,0.00000022,0.00000002,0.00000114,0.00000028,
 0.00000008,-0.00000032,0.00000129,0.,-0.00000032,0.00000159,-0.0000001
 8,-0.00000072,0.00000063,0.00000014,-0.00000072,0.00000020,-0.00000011
 ,-0.00000056,0.00000153,0.00000061,0.,0.00000089,0.00000009,-0.0000008
 1,0.00000124,0.00000064,-0.00000019,0.00000053,0.00000040,-0.00000045,
 0.00000090,0.00000020,-0.00000007,0.00000150,0.00000030,-0.00000080,0.
 00000122,0.00000022,-0.00000009,0.00000034,0.00000051,-0.00000021,0.00
 000130,0.00000035,-0.00000080,-0.00000012,-0.00000035,0.00000097,-0.00
 000077,-0.00000101,0.00000155,0.00000167,0.00000022,-0.00000032,0.0000
 0089,0.00000025,-0.00000042,0.00000043,0.00000027,-0.00000006,0.000000
 17,-0.00000008,0.00000057,0.00000169,0.00000044,0.00000039,0.00000041,
 0.00000013,-0.00000002,0.00000109,0.00000020,-0.00000068,0.00000060,0.
 00000005,-0.00000060,-0.00000018,-0.00000015,-0.00000019,0.00000022,0.
 00000068,0.00000107,0.00000089,0.00000032,0.00000065,0.00000143,0.0000
 0041,0.00000008,-0.00000002,-0.00000020,0.00000046,-0.00000041,0.00000
 027,0.00000036,0.00000096,0.00000028,0.00000091,0.00000056,0.00000013,
 -0.00000071,-0.00000013,-0.00000018,-0.00000081,-0.00000011,0.00000020
 ,-0.00000102,-0.00000066,0.,-0.00000084,-0.00000088,0.00000012,-0.0000
 0100,0.00000057,-0.00000018,-0.00000040,-0.00000024,-0.00000009,-0.000
 00103,-0.00000096,0.00000047,-0.00000160,-0.00000093,-0.00000062,-0.00
 000062,-0.00000037,0.00000006,-0.00000021,0.00000012,-0.00000032,-0.00
 000168,0.00000026,-0.00000109,-0.00000085,-0.00000037,-0.00000048,-0.0
 0000162,-0.00000037,-0.00000013,-0.00000072,-0.00000050,-0.00000018,-0
 .00000147,0.00000061,-0.00000035,0.00000062,-0.00000068,-0.00000033,0.
 00000014,-0.00000044,-0.00000031,0.00000082,-0.00000123,0.00000113,-0.
 00000055,0.00000124,0.00000021,-0.00000071,0.00000097,-0.00000054,-0.0
 0000015,-0.00000059,-0.00000114,0.00000006,-0.00000030,-0.00000008,0.0
 0000070,0.00000040,0.00000010,0.00000173,-0.00000050,0.00000002,-0.000
 00121,0.00000020,-0.00000108,-0.00000122,-0.00000013,-0.00000016,-0.00
 000117,-0.00000017,-0.00000007,-0.00000126,-0.00000008,-0.00000086,-0.
 00000207,0.00000063,-0.00000016,-0.00000146,0.00000004,-0.00000002,-0.
 00000088,-0.00000038,-0.00000009,-0.00000182,-0.00000098,0.00000041,-0
 .00000181,-0.00000006,-0.00000030,-0.00000104,-0.00000035,-0.00000037,
 -0.00000230,0.00000008,-0.00000066,-0.00000176,-0.00000029,0.00000003,
 0.00000169,-0.00000088,-0.00000004,0.00000179,0.00000011,0.00000037,0.
 00000191,-0.00000071,0.00000031,0.00000250,-0.00000079,0.00000002,0.00
 000147,-0.00000010,0.00000001,0.00000264,-0.00000068,0.00000022,0.0000
 0251,-0.00000104,-0.00000010,0.00000199,-0.00000005,0.00000037,0.00000
 260,-0.00000062,0.00000014,0.00000278,0.00000010,0.00000017,-0.0000021
 8,0.00000014,-0.00000008,-0.00000190,-0.00000025,-0.00000054,-0.000002
 58,-0.00000053,-0.00000044,-0.00000230,0.00000049,0.00000028,0.0000025
 7,0.00000035,0.00000023,0.00000174,0.00000062,0.00000044,0.00000216,0.
 00000037,0.00000057,0.00000148\\\@
 The archive entry for this job was punched.


 IT WAS AN ACT OF DESPARATION. FOR SIX YEARS I HAD STRUGGLED WITH THE
 BLACKBODY THEORY. I KNEW THE PROBLEM WAS FUNDAMENTAL, AND I KNEW
 THE ANSWER. I HAD TO FIND A THEORETICAL EXPLANATION AT ANY COST,
 EXCEPT FOR THE INVIOLABLITY OF THE TWO LAWS OF THERMODYNAMICS.
   -- MAX PLANCK, 1931
 Job cpu time:       4 days  3 hours 30 minutes 30.7 seconds.
 Elapsed time:       0 days  3 hours  7 minutes 56.5 seconds.
 File lengths (MBytes):  RWF=  23693 Int=      0 D2E=      0 Chk=    153 Scr=      1
 Normal termination of Gaussian 16 at Tue Jun 11 21:02:39 2024.
