 Entering Gaussian System, Link 0=g16
 Initial command:
 /opt/packages/gaussian/g16RevC.01/g16/l1.exe "/local/Gau-74977.inp" -scrdir="/local/"
 Entering Link 1 = /opt/packages/gaussian/g16RevC.01/g16/l1.exe PID=     75090.
  
 Copyright (c) 1988-2019, Gaussian, Inc.  All Rights Reserved.
  
 This is part of the Gaussian(R) 16 program.  It is based on
 the Gaussian(R) 09 system (copyright 2009, Gaussian, Inc.),
 the Gaussian(R) 03 system (copyright 2003, Gaussian, Inc.),
 the Gaussian(R) 98 system (copyright 1998, Gaussian, Inc.),
 the Gaussian(R) 94 system (copyright 1995, Gaussian, Inc.),
 the Gaussian 92(TM) system (copyright 1992, Gaussian, Inc.),
 the Gaussian 90(TM) system (copyright 1990, Gaussian, Inc.),
 the Gaussian 88(TM) system (copyright 1988, Gaussian, Inc.),
 the Gaussian 86(TM) system (copyright 1986, Carnegie Mellon
 University), and the Gaussian 82(TM) system (copyright 1983,
 Carnegie Mellon University). Gaussian is a federally registered
 trademark of Gaussian, Inc.
  
 This software contains proprietary and confidential information,
 including trade secrets, belonging to Gaussian, Inc.
  
 This software is provided under written license and may be
 used, copied, transmitted, or stored only in accord with that
 written license.
  
 The following legend is applicable only to US Government
 contracts under FAR:
  
                    RESTRICTED RIGHTS LEGEND
  
 Use, reproduction and disclosure by the US Government is
 subject to restrictions as set forth in subparagraphs (a)
 and (c) of the Commercial Computer Software - Restricted
 Rights clause in FAR 52.227-19.
  
 Gaussian, Inc.
 340 Quinnipiac St., Bldg. 40, Wallingford CT 06492
  
  
 ---------------------------------------------------------------
 Warning -- This program may not be used in any manner that
 competes with the business of Gaussian, Inc. or will provide
 assistance to any competitor of Gaussian, Inc.  The licensee
 of this program is prohibited from giving any competitor of
 Gaussian, Inc. access to this program.  By using this program,
 the user acknowledges that Gaussian, Inc. is engaged in the
 business of creating and licensing software in the field of
 computational chemistry and represents and warrants to the
 licensee that it is not a competitor of Gaussian, Inc. and that
 it will not use this program in any manner prohibited above.
 ---------------------------------------------------------------
  

 Cite this work as:
 Gaussian 16, Revision C.01,
 M. J. Frisch, G. W. Trucks, H. B. Schlegel, G. E. Scuseria, 
 M. A. Robb, J. R. Cheeseman, G. Scalmani, V. Barone, 
 G. A. Petersson, H. Nakatsuji, X. Li, M. Caricato, A. V. Marenich, 
 J. Bloino, B. G. Janesko, R. Gomperts, B. Mennucci, H. P. Hratchian, 
 J. V. Ortiz, A. F. Izmaylov, J. L. Sonnenberg, D. Williams-Young, 
 F. Ding, F. Lipparini, F. Egidi, J. Goings, B. Peng, A. Petrone, 
 T. Henderson, D. Ranasinghe, V. G. Zakrzewski, J. Gao, N. Rega, 
 G. Zheng, W. Liang, M. Hada, M. Ehara, K. Toyota, R. Fukuda, 
 J. Hasegawa, M. Ishida, T. Nakajima, Y. Honda, O. Kitao, H. Nakai, 
 T. Vreven, K. Throssell, J. A. Montgomery, Jr., J. E. Peralta, 
 F. Ogliaro, M. J. Bearpark, J. J. Heyd, E. N. Brothers, K. N. Kudin, 
 V. N. Staroverov, T. A. Keith, R. Kobayashi, J. Normand, 
 K. Raghavachari, A. P. Rendell, J. C. Burant, S. S. Iyengar, 
 J. Tomasi, M. Cossi, J. M. Millam, M. Klene, C. Adamo, R. Cammi, 
 J. W. Ochterski, R. L. Martin, K. Morokuma, O. Farkas, 
 J. B. Foresman, and D. J. Fox, Gaussian, Inc., Wallingford CT, 2019.
 
 ******************************************
 Gaussian 16:  ES64L-G16RevC.01  3-Jul-2019
                11-Jun-2024 
 ******************************************
 %nprocshared=32
 Will use up to   32 processors via shared memory.
 %mem=62GB
 ----------------------------------------------------------------------
 #p m062x genecp freq nosymm scrf=(smd,solvent=propylethanoate) empiric
 aldispersion=gd3 scf=(xqc,maxcycles=128)
 ----------------------------------------------------------------------
 1/10=4,30=1,38=1/1,3;
 2/12=2,15=1,17=6,18=5,40=1/2;
 3/5=7,11=2,16=1,17=8,25=1,30=1,70=32201,71=2,72=169,74=-55,124=31,140=1/1,2,3;
 4//1;
 5/5=2,7=128,8=3,13=1,38=5,53=169,98=1/2,8;
 8/6=4,10=90,11=11/1;
 11/6=1,8=1,9=11,15=111,16=1,31=1/1,2,10;
 10/6=1,31=1/2;
 6/7=2,8=2,9=2,10=2,28=1/1;
 7/8=1,10=1,25=1,30=1/1,2,3,16;
 1/10=4,30=1/3;
 99//99;
 Leave Link    1 at Tue Jun 11 17:54:38 2024, MaxMem=  8321499136 cpu:               0.7 elap:               0.1
 (Enter /opt/packages/gaussian/g16RevC.01/g16/l101.exe)
 -------------------
 Title Card Required
 -------------------
 Symbolic Z-matrix:
 Charge =  0 Multiplicity = 1
 C                     1.84347  -1.61018  -0.32313 
 C                     0.46018  -1.8115   -0.74088 
 C                    -0.35403  -2.64267   0.14491 
 C                     0.1357   -2.97936   1.37279 
 C                     1.49299  -2.65838   1.71095 
 N                     2.29016  -1.98893   0.83636 
 H                    -0.50802  -3.52002   2.06155 
 C                     2.84559  -0.91307  -1.18044 
 C                     4.14616  -1.43775  -1.36601 
 C                     5.10452  -0.66128  -2.02737 
 C                     3.50325   1.10988  -2.38823 
 C                     4.79095   0.60329  -2.52443 
 H                     6.10386  -1.07176  -2.17964 
 H                     5.55373   1.19451  -3.03354 
 H                     3.21508   2.09338  -2.75953 
 C                     2.5607    0.34275  -1.72068 
 C                     4.50851  -2.8151   -0.92969 
 C                     5.73447  -3.06116  -0.29773 
 C                     3.65342  -3.89855  -1.18414 
 C                     6.0866   -4.35374   0.09419 
 H                     6.41306  -2.22843  -0.10276 
 C                     4.00615  -5.18871  -0.79686 
 H                     2.70639  -3.7275   -1.70442 
 C                     5.22315  -5.42082  -0.15144 
 H                     7.04254  -4.52609   0.59233 
 H                     3.33115  -6.01976  -1.00889 
 H                     5.49896  -6.43209   0.15271 
 F                     1.33502   0.84591  -1.56778 
 C                    -1.75253  -2.99192  -0.24596 
 H                    -2.26589  -2.09497  -0.62968 
 H                    -1.74408  -3.73359  -1.05983 
 H                    -2.31026  -3.40108   0.60523 
 C                     1.39443  -3.72978   3.94686 
 C                     3.48299  -2.80308   3.13959 
 C                     2.12608  -5.04479   4.19457 
 H                     0.34104  -3.91273   3.72286 
 H                     1.45169  -3.10157   4.84954 
 C                     4.12744  -4.15482   3.41886 
 H                     3.95278  -2.32332   2.27663 
 H                     3.57027  -2.15106   4.02335 
 H                     2.01547  -5.69419   3.30463 
 H                     1.68428  -5.55654   5.05948 
 H                     4.09312  -4.76613   2.49638 
 H                     5.17856  -4.01305   3.7043 
 N                     2.05841  -3.00918   2.86431 
 O                     3.4836   -4.82278   4.47598 
 I                     0.16124  -2.06327  -2.83329 
 H                    -0.16013  -0.71368  -0.54767 
 C                    -2.54004   6.6977   -1.44477 
 C                    -2.62271   5.4762   -0.82014 
 C                    -1.44535   4.78952  -0.41062 
 C                    -0.18187   5.38447  -0.6877 
 C                    -0.1271    6.6555   -1.32523 
 C                    -1.28134   7.30023  -1.6926 
 H                    -3.45276   7.20694  -1.75782 
 H                    -3.59904   5.02275  -0.64776 
 C                    -1.48617   3.51259   0.24076 
 C                     1.00226   4.69291  -0.34445 
 H                     0.85111   7.09842  -1.522 
 H                    -1.23465   8.27248  -2.18554 
 C                     0.96602   3.43644   0.23199 
 C                    -0.30559   2.84643   0.52552 
 H                     1.96972   5.15216  -0.55596 
 C                    -2.82639   2.92029   0.57162 
 C                    -3.28486   1.76203  -0.02987 
 C                    -3.61095   3.54792   1.59731 
 C                    -4.52492   1.16015   0.36176 
 C                    -4.8769    2.98952   1.93642 
 C                    -3.16574   4.69515   2.31277 
 C                    -5.30435   1.79697   1.30834 
 C                    -5.67752   3.61157   2.93461 
 C                    -3.95588   5.26969   3.27989 
 H                    -2.18468   5.11882   2.09895 
 H                    -6.2579    1.35252   1.59882 
 C                    -5.22984   4.73176   3.58858 
 H                    -6.6477    3.17165   3.17301 
 H                    -3.59554   6.14693   3.81932 
 H                    -5.84563   5.20383   4.35564 
 S                    -0.44698   1.16326   1.113 
 O                    -1.35239   1.18259   2.21704 
 O                     0.84227   0.58876   1.34226 
 S                    -2.16666   0.95003  -1.16219 
 O                    -1.6487    1.95151  -2.03721 
 O                    -2.78955  -0.1782   -1.77934 
 N                    -1.05471   0.37286  -0.15163 
 C                     2.22577   2.80883   0.49576 
 C                     3.34036   2.35653   0.65101 
 C                    -4.98447  -0.09934  -0.14194 
 C                    -5.39137  -1.18247  -0.50577 
 C                    -5.73406  -2.46895  -1.03287 
 C                    -6.81378  -3.22877  -0.54235 
 C                    -4.95149  -2.99249  -2.07475 
 C                    -7.10022  -4.47817  -1.0839 
 C                    -5.24234  -4.24408  -2.61052 
 H                    -4.11864  -2.39385  -2.4485 
 C                    -6.31469  -4.98742  -2.11837 
 H                    -7.93976  -5.05463  -0.69507 
 H                    -4.62775  -4.63937  -3.42079 
 H                    -6.54443  -5.967    -2.53932 
 C                     4.61155   1.72783   0.8411 
 C                     4.66459   0.48281   1.48703 
 C                     5.8102    2.31261   0.38536 
 C                     5.88876  -0.14996   1.68718 
 H                     3.72949   0.02373   1.81501 
 C                     7.02761   1.66549   0.57306 
 C                     7.0688    0.43429   1.22806 
 H                     5.92228  -1.11072   2.20428 
 H                     7.94656   2.12819   0.21304 
 H                     8.02664  -0.06482   1.3815 
 C                     5.76509   3.64662  -0.31381 
 F                     6.98452   4.07748  -0.64317 
 F                     5.20771   4.59299   0.4483 
 F                     5.05172   3.5993   -1.44587 
 C                    -7.65111  -2.67875   0.5825 
 F                    -8.6393   -3.50934   0.92111 
 F                    -8.21425  -1.50937   0.2618 
 F                    -6.92412  -2.46492   1.68426 
 
 ITRead=  0  0  0  0  0  0  0  0  0  0  0  0  0  0  0  0  0  0  0  0
 ITRead=  0  0  0  0  0  0  0  0  0  0  0  0  0  0  0  0  0  0  0  0
 ITRead=  0  0  0  0  0  0  0  0  0  0  0  0  0  0  0  0  0  0  0  0
 ITRead=  0  0  0  0  0  0  0  0  0  0  0  0  0  0  0  0  0  0  0  0
 ITRead=  0  0  0  0  0  0  0  0  0  0  0  0  0  0  0  0  0  0  0  0
 ITRead=  0  0  0  0  0  0  0  0  0  0  0  0  0  0  0  0  0
 MicOpt= -1 -1 -1 -1 -1 -1 -1 -1 -1 -1 -1 -1 -1 -1 -1 -1 -1 -1 -1 -1
 MicOpt= -1 -1 -1 -1 -1 -1 -1 -1 -1 -1 -1 -1 -1 -1 -1 -1 -1 -1 -1 -1
 MicOpt= -1 -1 -1 -1 -1 -1 -1 -1 -1 -1 -1 -1 -1 -1 -1 -1 -1 -1 -1 -1
 MicOpt= -1 -1 -1 -1 -1 -1 -1 -1 -1 -1 -1 -1 -1 -1 -1 -1 -1 -1 -1 -1
 MicOpt= -1 -1 -1 -1 -1 -1 -1 -1 -1 -1 -1 -1 -1 -1 -1 -1 -1 -1 -1 -1
 MicOpt= -1 -1 -1 -1 -1 -1 -1 -1 -1 -1 -1 -1 -1 -1 -1 -1 -1
 NAtoms=    117 NQM=      117 NQMF=       0 NMMI=      0 NMMIF=      0
                NMic=       0 NMicF=      0.
                    Isotopes and Nuclear Properties:
 (Nuclear quadrupole moments (NQMom) in fm**2, nuclear magnetic moments (NMagM)
  in nuclear magnetons)

  Atom         1           2           3           4           5           6           7           8           9          10
 IAtWgt=          12          12          12          12          12          14           1          12          12          12
 AtmWgt=  12.0000000  12.0000000  12.0000000  12.0000000  12.0000000  14.0030740   1.0078250  12.0000000  12.0000000  12.0000000
 NucSpn=           0           0           0           0           0           2           1           0           0           0
 AtZEff=   0.0000000   0.0000000   0.0000000   0.0000000   0.0000000   0.0000000   0.0000000   0.0000000   0.0000000   0.0000000
 NQMom=    0.0000000   0.0000000   0.0000000   0.0000000   0.0000000   2.0440000   0.0000000   0.0000000   0.0000000   0.0000000
 NMagM=    0.0000000   0.0000000   0.0000000   0.0000000   0.0000000   0.4037610   2.7928460   0.0000000   0.0000000   0.0000000
 AtZNuc=   6.0000000   6.0000000   6.0000000   6.0000000   6.0000000   7.0000000   1.0000000   6.0000000   6.0000000   6.0000000

  Atom        11          12          13          14          15          16          17          18          19          20
 IAtWgt=          12          12           1           1           1          12          12          12          12          12
 AtmWgt=  12.0000000  12.0000000   1.0078250   1.0078250   1.0078250  12.0000000  12.0000000  12.0000000  12.0000000  12.0000000
 NucSpn=           0           0           1           1           1           0           0           0           0           0
 AtZEff=   0.0000000   0.0000000   0.0000000   0.0000000   0.0000000   0.0000000   0.0000000   0.0000000   0.0000000   0.0000000
 NQMom=    0.0000000   0.0000000   0.0000000   0.0000000   0.0000000   0.0000000   0.0000000   0.0000000   0.0000000   0.0000000
 NMagM=    0.0000000   0.0000000   2.7928460   2.7928460   2.7928460   0.0000000   0.0000000   0.0000000   0.0000000   0.0000000
 AtZNuc=   6.0000000   6.0000000   1.0000000   1.0000000   1.0000000   6.0000000   6.0000000   6.0000000   6.0000000   6.0000000

  Atom        21          22          23          24          25          26          27          28          29          30
 IAtWgt=           1          12           1          12           1           1           1          19          12           1
 AtmWgt=   1.0078250  12.0000000   1.0078250  12.0000000   1.0078250   1.0078250   1.0078250  18.9984032  12.0000000   1.0078250
 NucSpn=           1           0           1           0           1           1           1           1           0           1
 AtZEff=   0.0000000   0.0000000   0.0000000   0.0000000   0.0000000   0.0000000   0.0000000   0.0000000   0.0000000   0.0000000
 NQMom=    0.0000000   0.0000000   0.0000000   0.0000000   0.0000000   0.0000000   0.0000000   0.0000000   0.0000000   0.0000000
 NMagM=    2.7928460   0.0000000   2.7928460   0.0000000   2.7928460   2.7928460   2.7928460   2.6288670   0.0000000   2.7928460
 AtZNuc=   1.0000000   6.0000000   1.0000000   6.0000000   1.0000000   1.0000000   1.0000000   9.0000000   6.0000000   1.0000000

  Atom        31          32          33          34          35          36          37          38          39          40
 IAtWgt=           1           1          12          12          12           1           1          12           1           1
 AtmWgt=   1.0078250   1.0078250  12.0000000  12.0000000  12.0000000   1.0078250   1.0078250  12.0000000   1.0078250   1.0078250
 NucSpn=           1           1           0           0           0           1           1           0           1           1
 AtZEff=   0.0000000   0.0000000   0.0000000   0.0000000   0.0000000   0.0000000   0.0000000   0.0000000   0.0000000   0.0000000
 NQMom=    0.0000000   0.0000000   0.0000000   0.0000000   0.0000000   0.0000000   0.0000000   0.0000000   0.0000000   0.0000000
 NMagM=    2.7928460   2.7928460   0.0000000   0.0000000   0.0000000   2.7928460   2.7928460   0.0000000   2.7928460   2.7928460
 AtZNuc=   1.0000000   1.0000000   6.0000000   6.0000000   6.0000000   1.0000000   1.0000000   6.0000000   1.0000000   1.0000000

  Atom        41          42          43          44          45          46          47          48          49          50
 IAtWgt=           1           1           1           1          14          16         127           1          12          12
 AtmWgt=   1.0078250   1.0078250   1.0078250   1.0078250  14.0030740  15.9949146 126.9004000   1.0078250  12.0000000  12.0000000
 NucSpn=           1           1           1           1           2           0           5           1           0           0
 AtZEff=   0.0000000   0.0000000   0.0000000   0.0000000   0.0000000   0.0000000   0.0000000   0.0000000   0.0000000   0.0000000
 NQMom=    0.0000000   0.0000000   0.0000000   0.0000000   2.0440000   0.0000000 -71.0000000   0.0000000   0.0000000   0.0000000
 NMagM=    2.7928460   2.7928460   2.7928460   2.7928460   0.4037610   0.0000000   2.8132800   2.7928460   0.0000000   0.0000000
 AtZNuc=   1.0000000   1.0000000   1.0000000   1.0000000   7.0000000   8.0000000  53.0000000   1.0000000   6.0000000   6.0000000

  Atom        51          52          53          54          55          56          57          58          59          60
 IAtWgt=          12          12          12          12           1           1          12          12           1           1
 AtmWgt=  12.0000000  12.0000000  12.0000000  12.0000000   1.0078250   1.0078250  12.0000000  12.0000000   1.0078250   1.0078250
 NucSpn=           0           0           0           0           1           1           0           0           1           1
 AtZEff=   0.0000000   0.0000000   0.0000000   0.0000000   0.0000000   0.0000000   0.0000000   0.0000000   0.0000000   0.0000000
 NQMom=    0.0000000   0.0000000   0.0000000   0.0000000   0.0000000   0.0000000   0.0000000   0.0000000   0.0000000   0.0000000
 NMagM=    0.0000000   0.0000000   0.0000000   0.0000000   2.7928460   2.7928460   0.0000000   0.0000000   2.7928460   2.7928460
 AtZNuc=   6.0000000   6.0000000   6.0000000   6.0000000   1.0000000   1.0000000   6.0000000   6.0000000   1.0000000   1.0000000

  Atom        61          62          63          64          65          66          67          68          69          70
 IAtWgt=          12          12           1          12          12          12          12          12          12          12
 AtmWgt=  12.0000000  12.0000000   1.0078250  12.0000000  12.0000000  12.0000000  12.0000000  12.0000000  12.0000000  12.0000000
 NucSpn=           0           0           1           0           0           0           0           0           0           0
 AtZEff=   0.0000000   0.0000000   0.0000000   0.0000000   0.0000000   0.0000000   0.0000000   0.0000000   0.0000000   0.0000000
 NQMom=    0.0000000   0.0000000   0.0000000   0.0000000   0.0000000   0.0000000   0.0000000   0.0000000   0.0000000   0.0000000
 NMagM=    0.0000000   0.0000000   2.7928460   0.0000000   0.0000000   0.0000000   0.0000000   0.0000000   0.0000000   0.0000000
 AtZNuc=   6.0000000   6.0000000   1.0000000   6.0000000   6.0000000   6.0000000   6.0000000   6.0000000   6.0000000   6.0000000

  Atom        71          72          73          74          75          76          77          78          79          80
 IAtWgt=          12          12           1           1          12           1           1           1          32          16
 AtmWgt=  12.0000000  12.0000000   1.0078250   1.0078250  12.0000000   1.0078250   1.0078250   1.0078250  31.9720718  15.9949146
 NucSpn=           0           0           1           1           0           1           1           1           0           0
 AtZEff=   0.0000000   0.0000000   0.0000000   0.0000000   0.0000000   0.0000000   0.0000000   0.0000000   0.0000000   0.0000000
 NQMom=    0.0000000   0.0000000   0.0000000   0.0000000   0.0000000   0.0000000   0.0000000   0.0000000   0.0000000   0.0000000
 NMagM=    0.0000000   0.0000000   2.7928460   2.7928460   0.0000000   2.7928460   2.7928460   2.7928460   0.0000000   0.0000000
 AtZNuc=   6.0000000   6.0000000   1.0000000   1.0000000   6.0000000   1.0000000   1.0000000   1.0000000  16.0000000   8.0000000

  Atom        81          82          83          84          85          86          87          88          89          90
 IAtWgt=          16          32          16          16          14          12          12          12          12          12
 AtmWgt=  15.9949146  31.9720718  15.9949146  15.9949146  14.0030740  12.0000000  12.0000000  12.0000000  12.0000000  12.0000000
 NucSpn=           0           0           0           0           2           0           0           0           0           0
 AtZEff=   0.0000000   0.0000000   0.0000000   0.0000000   0.0000000   0.0000000   0.0000000   0.0000000   0.0000000   0.0000000
 NQMom=    0.0000000   0.0000000   0.0000000   0.0000000   2.0440000   0.0000000   0.0000000   0.0000000   0.0000000   0.0000000
 NMagM=    0.0000000   0.0000000   0.0000000   0.0000000   0.4037610   0.0000000   0.0000000   0.0000000   0.0000000   0.0000000
 AtZNuc=   8.0000000  16.0000000   8.0000000   8.0000000   7.0000000   6.0000000   6.0000000   6.0000000   6.0000000   6.0000000

  Atom        91          92          93          94          95          96          97          98          99         100
 IAtWgt=          12          12          12          12           1          12           1           1           1          12
 AtmWgt=  12.0000000  12.0000000  12.0000000  12.0000000   1.0078250  12.0000000   1.0078250   1.0078250   1.0078250  12.0000000
 NucSpn=           0           0           0           0           1           0           1           1           1           0
 AtZEff=   0.0000000   0.0000000   0.0000000   0.0000000   0.0000000   0.0000000   0.0000000   0.0000000   0.0000000   0.0000000
 NQMom=    0.0000000   0.0000000   0.0000000   0.0000000   0.0000000   0.0000000   0.0000000   0.0000000   0.0000000   0.0000000
 NMagM=    0.0000000   0.0000000   0.0000000   0.0000000   2.7928460   0.0000000   2.7928460   2.7928460   2.7928460   0.0000000
 AtZNuc=   6.0000000   6.0000000   6.0000000   6.0000000   1.0000000   6.0000000   1.0000000   1.0000000   1.0000000   6.0000000

  Atom       101         102         103         104         105         106         107         108         109         110
 IAtWgt=          12          12          12           1          12          12           1           1           1          12
 AtmWgt=  12.0000000  12.0000000  12.0000000   1.0078250  12.0000000  12.0000000   1.0078250   1.0078250   1.0078250  12.0000000
 NucSpn=           0           0           0           1           0           0           1           1           1           0
 AtZEff=   0.0000000   0.0000000   0.0000000   0.0000000   0.0000000   0.0000000   0.0000000   0.0000000   0.0000000   0.0000000
 NQMom=    0.0000000   0.0000000   0.0000000   0.0000000   0.0000000   0.0000000   0.0000000   0.0000000   0.0000000   0.0000000
 NMagM=    0.0000000   0.0000000   0.0000000   2.7928460   0.0000000   0.0000000   2.7928460   2.7928460   2.7928460   0.0000000
 AtZNuc=   6.0000000   6.0000000   6.0000000   1.0000000   6.0000000   6.0000000   1.0000000   1.0000000   1.0000000   6.0000000

  Atom       111         112         113         114         115         116         117
 IAtWgt=          19          19          19          12          19          19          19
 AtmWgt=  18.9984032  18.9984032  18.9984032  12.0000000  18.9984032  18.9984032  18.9984032
 NucSpn=           1           1           1           0           1           1           1
 AtZEff=   0.0000000   0.0000000   0.0000000   0.0000000   0.0000000   0.0000000   0.0000000
 NQMom=    0.0000000   0.0000000   0.0000000   0.0000000   0.0000000   0.0000000   0.0000000
 NMagM=    2.6288670   2.6288670   2.6288670   0.0000000   2.6288670   2.6288670   2.6288670
 AtZNuc=   9.0000000   9.0000000   9.0000000   6.0000000   9.0000000   9.0000000   9.0000000
 Leave Link  101 at Tue Jun 11 17:54:38 2024, MaxMem=  8321499136 cpu:               2.0 elap:               0.2
 (Enter /opt/packages/gaussian/g16RevC.01/g16/l103.exe)

 GradGradGradGradGradGradGradGradGradGradGradGradGradGradGradGradGradGrad
 Berny optimization.
 Initialization pass.
 Trust Radius=3.00D-01 FncErr=1.00D-07 GrdErr=1.00D-07 EigMax=2.50D+02 EigMin=1.00D-04
 Number of steps in this run=      2 maximum allowed number of steps=      2.
 GradGradGradGradGradGradGradGradGradGradGradGradGradGradGradGradGradGrad

 Leave Link  103 at Tue Jun 11 17:54:38 2024, MaxMem=  8321499136 cpu:               2.3 elap:               0.1
 (Enter /opt/packages/gaussian/g16RevC.01/g16/l202.exe)
 Symmetry turned off by external request.
 Stoichiometry    C60H39F7IN3O5S2
 Framework group  C1[X(C60H39F7IN3O5S2)]
 Deg. of freedom   345
 Full point group                 C1      NOp   1
                          Input orientation:                          
 ---------------------------------------------------------------------
 Center     Atomic      Atomic             Coordinates (Angstroms)
 Number     Number       Type             X           Y           Z
 ---------------------------------------------------------------------
      1          6           0        1.843474   -1.610182   -0.323129
      2          6           0        0.460180   -1.811503   -0.740875
      3          6           0       -0.354033   -2.642671    0.144906
      4          6           0        0.135703   -2.979359    1.372794
      5          6           0        1.492994   -2.658375    1.710954
      6          7           0        2.290161   -1.988929    0.836364
      7          1           0       -0.508016   -3.520018    2.061547
      8          6           0        2.845594   -0.913067   -1.180443
      9          6           0        4.146155   -1.437754   -1.366005
     10          6           0        5.104519   -0.661279   -2.027366
     11          6           0        3.503249    1.109883   -2.388226
     12          6           0        4.790951    0.603287   -2.524428
     13          1           0        6.103856   -1.071759   -2.179638
     14          1           0        5.553733    1.194513   -3.033543
     15          1           0        3.215078    2.093380   -2.759527
     16          6           0        2.560704    0.342751   -1.720676
     17          6           0        4.508509   -2.815100   -0.929693
     18          6           0        5.734470   -3.061164   -0.297729
     19          6           0        3.653419   -3.898547   -1.184144
     20          6           0        6.086596   -4.353744    0.094187
     21          1           0        6.413060   -2.228426   -0.102764
     22          6           0        4.006154   -5.188708   -0.796855
     23          1           0        2.706394   -3.727501   -1.704421
     24          6           0        5.223147   -5.420817   -0.151435
     25          1           0        7.042543   -4.526088    0.592327
     26          1           0        3.331152   -6.019761   -1.008887
     27          1           0        5.498960   -6.432089    0.152714
     28          9           0        1.335015    0.845911   -1.567784
     29          6           0       -1.752525   -2.991921   -0.245957
     30          1           0       -2.265895   -2.094971   -0.629676
     31          1           0       -1.744078   -3.733590   -1.059832
     32          1           0       -2.310262   -3.401080    0.605229
     33          6           0        1.394431   -3.729783    3.946857
     34          6           0        3.482994   -2.803084    3.139585
     35          6           0        2.126084   -5.044789    4.194567
     36          1           0        0.341036   -3.912730    3.722856
     37          1           0        1.451689   -3.101570    4.849540
     38          6           0        4.127439   -4.154818    3.418859
     39          1           0        3.952779   -2.323320    2.276626
     40          1           0        3.570269   -2.151060    4.023352
     41          1           0        2.015469   -5.694185    3.304634
     42          1           0        1.684282   -5.556540    5.059482
     43          1           0        4.093120   -4.766127    2.496383
     44          1           0        5.178565   -4.013052    3.704295
     45          7           0        2.058410   -3.009178    2.864311
     46          8           0        3.483601   -4.822781    4.475977
     47         53           0        0.161238   -2.063269   -2.833285
     48          1           0       -0.160126   -0.713677   -0.547674
     49          6           0       -2.540040    6.697699   -1.444765
     50          6           0       -2.622711    5.476200   -0.820142
     51          6           0       -1.445351    4.789522   -0.410623
     52          6           0       -0.181874    5.384468   -0.687698
     53          6           0       -0.127097    6.655504   -1.325231
     54          6           0       -1.281341    7.300235   -1.692598
     55          1           0       -3.452762    7.206943   -1.757820
     56          1           0       -3.599041    5.022747   -0.647757
     57          6           0       -1.486174    3.512587    0.240762
     58          6           0        1.002265    4.692907   -0.344445
     59          1           0        0.851109    7.098417   -1.522000
     60          1           0       -1.234650    8.272478   -2.185536
     61          6           0        0.966017    3.436437    0.231989
     62          6           0       -0.305588    2.846426    0.525518
     63          1           0        1.969718    5.152162   -0.555961
     64          6           0       -2.826390    2.920289    0.571619
     65          6           0       -3.284856    1.762030   -0.029871
     66          6           0       -3.610945    3.547919    1.597310
     67          6           0       -4.524921    1.160148    0.361764
     68          6           0       -4.876896    2.989515    1.936417
     69          6           0       -3.165743    4.695151    2.312770
     70          6           0       -5.304347    1.796965    1.308336
     71          6           0       -5.677519    3.611574    2.934607
     72          6           0       -3.955876    5.269688    3.279889
     73          1           0       -2.184677    5.118821    2.098949
     74          1           0       -6.257895    1.352515    1.598818
     75          6           0       -5.229843    4.731764    3.588582
     76          1           0       -6.647702    3.171646    3.173014
     77          1           0       -3.595536    6.146929    3.819322
     78          1           0       -5.845633    5.203834    4.355643
     79         16           0       -0.446982    1.163258    1.112998
     80          8           0       -1.352388    1.182589    2.217044
     81          8           0        0.842274    0.588757    1.342258
     82         16           0       -2.166659    0.950034   -1.162194
     83          8           0       -1.648701    1.951513   -2.037213
     84          8           0       -2.789551   -0.178196   -1.779339
     85          7           0       -1.054706    0.372861   -0.151626
     86          6           0        2.225771    2.808828    0.495757
     87          6           0        3.340356    2.356527    0.651011
     88          6           0       -4.984472   -0.099337   -0.141936
     89          6           0       -5.391374   -1.182471   -0.505773
     90          6           0       -5.734056   -2.468947   -1.032871
     91          6           0       -6.813784   -3.228772   -0.542351
     92          6           0       -4.951487   -2.992488   -2.074746
     93          6           0       -7.100217   -4.478167   -1.083902
     94          6           0       -5.242337   -4.244081   -2.610515
     95          1           0       -4.118640   -2.393852   -2.448500
     96          6           0       -6.314686   -4.987421   -2.118368
     97          1           0       -7.939755   -5.054633   -0.695066
     98          1           0       -4.627747   -4.639365   -3.420786
     99          1           0       -6.544425   -5.966995   -2.539320
    100          6           0        4.611554    1.727826    0.841101
    101          6           0        4.664594    0.482805    1.487032
    102          6           0        5.810200    2.312613    0.385363
    103          6           0        5.888764   -0.149959    1.687179
    104          1           0        3.729487    0.023732    1.815007
    105          6           0        7.027607    1.665492    0.573063
    106          6           0        7.068803    0.434290    1.228058
    107          1           0        5.922279   -1.110718    2.204284
    108          1           0        7.946557    2.128193    0.213036
    109          1           0        8.026642   -0.064823    1.381500
    110          6           0        5.765086    3.646617   -0.313805
    111          9           0        6.984523    4.077482   -0.643168
    112          9           0        5.207711    4.592994    0.448300
    113          9           0        5.051718    3.599296   -1.445869
    114          6           0       -7.651114   -2.678752    0.582501
    115          9           0       -8.639303   -3.509335    0.921112
    116          9           0       -8.214250   -1.509371    0.261795
    117          9           0       -6.924118   -2.464915    1.684263
 ---------------------------------------------------------------------
 Rotational constants (GHZ):           0.0305203           0.0207425           0.0155271
 Leave Link  202 at Tue Jun 11 17:54:39 2024, MaxMem=  8321499136 cpu:               1.7 elap:               0.2
 (Enter /opt/packages/gaussian/g16RevC.01/g16/l301.exe)
 General basis read from cards:  (5D, 7F)
 Centers:       1      2      3      4      5      8      9     10     11     12
 Centers:      16     17     18     19     20     22     24     29     33     34
 Centers:      35     38     49     50     51     52     53     54     57     58
 Centers:      61     62     64     65     66     67     68     69     70     71
 Centers:      72     75     86     87     88     89     90     91     92     93
 Centers:      94     96    100    101    102    103    105    106    110    114
 Centers:       7     13     14     15     21     23     25     26     27     30
 Centers:      31     32     36     37     39     40     41     42     43     44
 Centers:      48     55     56     59     60     63     73     74     76     77
 Centers:      78     95     97     98     99    104    107    108    109      6
 Centers:      45     85     28    111    112    113    115    116    117     46
 Centers:      80     81     83     84
 def2svp
 ****
 Centers:      47     79     82
 def2tzvp
 ****
 ======================================================================================================
                                       Pseudopotential Parameters
 ======================================================================================================
  Center     Atomic      Valence      Angular      Power
  Number     Number     Electrons     Momentum     of R      Exponent        Coefficient   SO-Coeffient
 ======================================================================================================
    1          6
                                   No pseudopotential on this center.
    2          6
                                   No pseudopotential on this center.
    3          6
                                   No pseudopotential on this center.
    4          6
                                   No pseudopotential on this center.
    5          6
                                   No pseudopotential on this center.
    6          7
                                   No pseudopotential on this center.
    7          1
                                   No pseudopotential on this center.
    8          6
                                   No pseudopotential on this center.
    9          6
                                   No pseudopotential on this center.
   10          6
                                   No pseudopotential on this center.
   11          6
                                   No pseudopotential on this center.
   12          6
                                   No pseudopotential on this center.
   13          1
                                   No pseudopotential on this center.
   14          1
                                   No pseudopotential on this center.
   15          1
                                   No pseudopotential on this center.
   16          6
                                   No pseudopotential on this center.
   17          6
                                   No pseudopotential on this center.
   18          6
                                   No pseudopotential on this center.
   19          6
                                   No pseudopotential on this center.
   20          6
                                   No pseudopotential on this center.
   21          1
                                   No pseudopotential on this center.
   22          6
                                   No pseudopotential on this center.
   23          1
                                   No pseudopotential on this center.
   24          6
                                   No pseudopotential on this center.
   25          1
                                   No pseudopotential on this center.
   26          1
                                   No pseudopotential on this center.
   27          1
                                   No pseudopotential on this center.
   28          9
                                   No pseudopotential on this center.
   29          6
                                   No pseudopotential on this center.
   30          1
                                   No pseudopotential on this center.
   31          1
                                   No pseudopotential on this center.
   32          1
                                   No pseudopotential on this center.
   33          6
                                   No pseudopotential on this center.
   34          6
                                   No pseudopotential on this center.
   35          6
                                   No pseudopotential on this center.
   36          1
                                   No pseudopotential on this center.
   37          1
                                   No pseudopotential on this center.
   38          6
                                   No pseudopotential on this center.
   39          1
                                   No pseudopotential on this center.
   40          1
                                   No pseudopotential on this center.
   41          1
                                   No pseudopotential on this center.
   42          1
                                   No pseudopotential on this center.
   43          1
                                   No pseudopotential on this center.
   44          1
                                   No pseudopotential on this center.
   45          7
                                   No pseudopotential on this center.
   46          8
                                   No pseudopotential on this center.
   47         53           25
                                      G and up 
                                                     2        1.0000000        0.00000000    0.00000000
                                      S - G
                                                     2       40.0158350       49.99429300    0.00000000
                                                     2       17.4297470      281.02531700    0.00000000
                                                     2        9.0054840       61.57332600    0.00000000
                                      P - G
                                                     2       15.3554660       67.44284100 -134.88568300
                                                     2       14.9718330      134.88113700  134.88113700
                                                     2        8.9601640       14.67505100  -29.35010100
                                                     2        8.2590960       29.37566600   29.37566600
                                      D - G
                                                     2       15.0689080       35.43952900  -35.43952900
                                                     2       14.5553220       53.17605700   35.45070400
                                                     2        6.7186470        9.06719500   -9.06719500
                                                     2        6.4563930       13.20693700    8.80462400
                                                     2        1.1917790        0.08933500   -0.08933500
                                                     2        1.2911570        0.05238000    0.03492000
                                      F - G
                                                     2       19.4586090      -21.84204000   14.56136000
                                                     2       19.3492600      -28.46819100  -14.23409500
                                                     2        4.8237670       -0.24371300    0.16247500
                                                     2        4.8843150       -0.32080400   -0.16040200
   48          1
                                   No pseudopotential on this center.
   49          6
                                   No pseudopotential on this center.
   50          6
                                   No pseudopotential on this center.
   51          6
                                   No pseudopotential on this center.
   52          6
                                   No pseudopotential on this center.
   53          6
                                   No pseudopotential on this center.
   54          6
                                   No pseudopotential on this center.
   55          1
                                   No pseudopotential on this center.
   56          1
                                   No pseudopotential on this center.
   57          6
                                   No pseudopotential on this center.
   58          6
                                   No pseudopotential on this center.
   59          1
                                   No pseudopotential on this center.
   60          1
                                   No pseudopotential on this center.
   61          6
                                   No pseudopotential on this center.
   62          6
                                   No pseudopotential on this center.
   63          1
                                   No pseudopotential on this center.
   64          6
                                   No pseudopotential on this center.
   65          6
                                   No pseudopotential on this center.
   66          6
                                   No pseudopotential on this center.
   67          6
                                   No pseudopotential on this center.
   68          6
                                   No pseudopotential on this center.
   69          6
                                   No pseudopotential on this center.
   70          6
                                   No pseudopotential on this center.
   71          6
                                   No pseudopotential on this center.
   72          6
                                   No pseudopotential on this center.
   73          1
                                   No pseudopotential on this center.
   74          1
                                   No pseudopotential on this center.
   75          6
                                   No pseudopotential on this center.
   76          1
                                   No pseudopotential on this center.
   77          1
                                   No pseudopotential on this center.
   78          1
                                   No pseudopotential on this center.
   79         16
                                   No pseudopotential on this center.
   80          8
                                   No pseudopotential on this center.
   81          8
                                   No pseudopotential on this center.
   82         16
                                   No pseudopotential on this center.
   83          8
                                   No pseudopotential on this center.
   84          8
                                   No pseudopotential on this center.
   85          7
                                   No pseudopotential on this center.
   86          6
                                   No pseudopotential on this center.
   87          6
                                   No pseudopotential on this center.
   88          6
                                   No pseudopotential on this center.
   89          6
                                   No pseudopotential on this center.
   90          6
                                   No pseudopotential on this center.
   91          6
                                   No pseudopotential on this center.
   92          6
                                   No pseudopotential on this center.
   93          6
                                   No pseudopotential on this center.
   94          6
                                   No pseudopotential on this center.
   95          1
                                   No pseudopotential on this center.
   96          6
                                   No pseudopotential on this center.
   97          1
                                   No pseudopotential on this center.
   98          1
                                   No pseudopotential on this center.
   99          1
                                   No pseudopotential on this center.
  100          6
                                   No pseudopotential on this center.
  101          6
                                   No pseudopotential on this center.
  102          6
                                   No pseudopotential on this center.
  103          6
                                   No pseudopotential on this center.
  104          1
                                   No pseudopotential on this center.
  105          6
                                   No pseudopotential on this center.
  106          6
                                   No pseudopotential on this center.
  107          1
                                   No pseudopotential on this center.
  108          1
                                   No pseudopotential on this center.
  109          1
                                   No pseudopotential on this center.
  110          6
                                   No pseudopotential on this center.
  111          9
                                   No pseudopotential on this center.
  112          9
                                   No pseudopotential on this center.
  113          9
                                   No pseudopotential on this center.
  114          6
                                   No pseudopotential on this center.
  115          9
                                   No pseudopotential on this center.
  116          9
                                   No pseudopotential on this center.
  117          9
                                   No pseudopotential on this center.
 ======================================================================================================
 Ernie: Thresh=  0.10000D-02 Tol=  0.10000D-05 Strict=F.
  1369 basis functions,  2395 primitive gaussians,  1463 cartesian basis functions
   290 alpha electrons      290 beta electrons
       nuclear repulsion energy     15449.6081465976 Hartrees.
 IExCor= 4336 DFT=T Ex+Corr=M062X ExCW=0 ScaHFX=  0.540000
 ScaDFX=  1.000000  1.000000  1.000000  1.000000 ScalE2=  1.000000  1.000000
 IRadAn=      5 IRanWt=     -1 IRanGd=            0 ICorTp=0 IEmpDi=131
 NAtoms=  117 NActive=  117 NUniq=  117 SFac= 1.00D+00 NAtFMM=   60 NAOKFM=T Big=T
 Integral buffers will be    131072 words long.
 Raffenetti 2 integral format.
 Two-electron integral symmetry is turned off.
 R6Disp:  Grimme-D3 Dispersion energy=       -0.0186525605 Hartrees.
 Nuclear repulsion after empirical dispersion term =    15449.5894940370 Hartrees.
 Force inversion solution in PCM.
 ------------------------------------------------------------------------------
 Polarizable Continuum Model (PCM)
 =================================
 Model                : PCM.
 Atomic radii         : SMD-Coulomb.
 Polarization charges : Total charges.
 Charge compensation  : None.
 Solution method      : Matrix inversion.
 Cavity type          : VdW (van der Waals Surface) (Alpha=1.000).
 Cavity algorithm     : GePol (No added spheres)
                        Default sphere list used, NSphG=  117.
                        Lebedev-Laikov grids with approx.  5.0 points / Ang**2.
                        Smoothing algorithm: York/Karplus (Gamma=1.0000).
                        Polarization charges: spherical gaussians, with
                                              point-specific exponents (IZeta= 3).
                        Self-potential: point-specific (ISelfS= 7).
                        Self-field    : sphere-specific E.n sum rule (ISelfD= 2).
 1st derivatives      : Analytical E(r).r(x)/FMM algorithm (CHGder, D1EAlg=3).
                        Cavity 1st derivative terms included.
 2nd derivatives      : Analytical E(r).r(xy)/FMM algorithm (CHGder, D2EAlg=3).
                        Cavity 2nd derivative terms included.
 Solvent              : PropylEthanoate, Eps=   5.520500 Eps(inf)=   1.916010
 ------------------------------------------------------------------------------
 GePol: Number of generator spheres                  =     117
 GePol: Total number of spheres                      =     117
 GePol: Number of exposed spheres                    =     117 (100.00%)
 GePol: Number of points                             =    8401
 GePol: Average weight of points                     =       0.11
 GePol: Minimum weight of points                     =   0.80D-11
 GePol: Maximum weight of points                     =    0.21501
 GePol: Number of points with low weight             =     543
 GePol: Fraction of low-weight points (<1% of avg)   =       6.46%
 GePol: Cavity surface area                          =    942.083 Ang**2
 GePol: Cavity volume                                =   1072.979 Ang**3
 ------------------------------------------------------------------------------
 Atomic radii for non-electrostatic terms: SMD-CDS.
 ------------------------------------------------------------------------------
 PCM non-electrostatic energy =        -0.0220698310 Hartrees.
 Nuclear repulsion after PCM non-electrostatic terms =    15449.5674242061 Hartrees.
 Leave Link  301 at Tue Jun 11 17:54:39 2024, MaxMem=  8321499136 cpu:               8.3 elap:               0.3
 (Enter /opt/packages/gaussian/g16RevC.01/g16/l302.exe)
 NPDir=0 NMtPBC=     1 NCelOv=     1 NCel=       1 NClECP=     1 NCelD=      1
         NCelK=      1 NCelE2=     1 NClLst=     1 CellRange=     0.0.
 One-electron integrals computed using PRISM.
   1 Symmetry operations used in ECPInt.
 ECPInt:  NShTT=  185745 NPrTT=  697989 LenC2=  126060 LenP2D=  279613.
 LDataN:  DoStor=T MaxTD1= 7 Len=  274
 NBasis=  1369 RedAO= T EigKep=  1.60D-04  NBF=  1369
 NBsUse=  1369 1.00D-06 EigRej= -1.00D+00 NBFU=  1369
 Precomputing XC quadrature grid using
 IXCGrd= 4 IRadAn=           5 IRanWt=          -1 IRanGd=           0 AccXCQ= 0.00D+00.
 Defaulting to unpruned grid for atomic number  53.
 Generated NRdTot=       0 NPtTot=           0 NUsed=           0 NTot=          32
 NSgBfM=  1319  1319  1319  1319  1319 MxSgAt=   117 MxSgA2=   117.
 Leave Link  302 at Tue Jun 11 17:54:43 2024, MaxMem=  8321499136 cpu:             111.2 elap:               3.7
 (Enter /opt/packages/gaussian/g16RevC.01/g16/l303.exe)
 DipDrv:  MaxL=1.
 Leave Link  303 at Tue Jun 11 17:54:44 2024, MaxMem=  8321499136 cpu:               5.7 elap:               0.6
 (Enter /opt/packages/gaussian/g16RevC.01/g16/l401.exe)
 ExpMin= 7.49D-02 ExpMax= 6.07D+04 ExpMxC= 2.07D+03 IAcc=3 IRadAn=         5 AccDes= 0.00D+00
 Harris functional with IExCor= 1009 and IRadAn=       5 diagonalized for initial guess.
 HarFok:  IExCor= 1009 AccDes= 0.00D+00 IRadAn=         5 IDoV= 1 UseB2=F ITyADJ=14
 ICtDFT=  3500011 ScaDFX=  1.000000  1.000000  1.000000  1.000000
 Defaulting to unpruned grid for atomic number  53.
 FoFCou: FMM=F IPFlag=           0 FMFlag=      100000 FMFlg1=        2001
         NFxFlg=           0 DoJE=T BraDBF=F KetDBF=T FulRan=T
         wScrn=  0.000000 ICntrl=       500 IOpCl=  0 I1Cent=   200000004 NGrid=           0
         NMat0=    1 NMatS0=      1 NMatT0=    0 NMatD0=    1 NMtDS0=    0 NMtDT0=    0
 Symmetry not used in FoFCou.
 Harris En= -4637.17965440023    
 JPrj=0 DoOrth=F DoCkMO=F.
 Leave Link  401 at Tue Jun 11 17:54:50 2024, MaxMem=  8321499136 cpu:             188.0 elap:               5.9
 (Enter /opt/packages/gaussian/g16RevC.01/g16/l502.exe)
 Two-electron integral symmetry not used.
 Closed shell SCF:
 Using DIIS extrapolation, IDIIS=  1040.
 NGot=  8321499136 LenX=  8317157783 LenY=  8315015951
 Requested convergence on RMS density matrix=1.00D-08 within 128 cycles.
 Requested convergence on MAX density matrix=1.00D-06.
 Requested convergence on             energy=1.00D-06.
 No special actions if energy rises.
 Fock matrices will be formed incrementally for  20 cycles.

 Cycle   1  Pass 1  IDiag  1:
 FoFJK:  IHMeth= 1 ICntrl=       0 DoSepK=F KAlg= 0 I1Cent=           0 FoldK=F
 IRaf= 710000000 NMat=       1 IRICut=       1 DoRegI=T DoRafI=F ISym2E= 0 IDoP0=0 IntGTp=1.
 FoFCou: FMM=T IPFlag=           0 FMFlag=      100000 FMFlg1=        2001
         NFxFlg=           0 DoJE=F BraDBF=F KetDBF=F FulRan=T
         wScrn=  0.000000 ICntrl=         0 IOpCl=  0 I1Cent=           0 NGrid=           0
         NMat0=    1 NMatS0=      1 NMatT0=    0 NMatD0=    1 NMtDS0=    0 NMtDT0=    0
 Symmetry not used in FoFCou.
 FMM levels:  10  Number of levels for PrismC:   9
 Defaulting to unpruned grid for atomic number  53.
 Defaulting to unpruned grid for atomic number  53.
 Defaulting to unpruned grid for atomic number  53.
 Defaulting to unpruned grid for atomic number  53.
 Defaulting to unpruned grid for atomic number  53.
 Defaulting to unpruned grid for atomic number  53.
 Defaulting to unpruned grid for atomic number  53.
 Defaulting to unpruned grid for atomic number  53.
 Defaulting to unpruned grid for atomic number  53.
 Defaulting to unpruned grid for atomic number  53.
 Defaulting to unpruned grid for atomic number  53.
 Defaulting to unpruned grid for atomic number  53.
 Defaulting to unpruned grid for atomic number  53.
 Defaulting to unpruned grid for atomic number  53.
 Defaulting to unpruned grid for atomic number  53.
 Defaulting to unpruned grid for atomic number  53.
 Defaulting to unpruned grid for atomic number  53.
 Defaulting to unpruned grid for atomic number  53.
 Defaulting to unpruned grid for atomic number  53.
 Defaulting to unpruned grid for atomic number  53.
 Defaulting to unpruned grid for atomic number  53.
 Defaulting to unpruned grid for atomic number  53.
 Defaulting to unpruned grid for atomic number  53.
 Defaulting to unpruned grid for atomic number  53.
 Defaulting to unpruned grid for atomic number  53.
 Defaulting to unpruned grid for atomic number  53.
 Defaulting to unpruned grid for atomic number  53.
 Defaulting to unpruned grid for atomic number  53.
 Defaulting to unpruned grid for atomic number  53.
 Defaulting to unpruned grid for atomic number  53.
 Defaulting to unpruned grid for atomic number  53.
 Defaulting to unpruned grid for atomic number  53.
 Inv3:  Mode=1 IEnd=   211730403.
 Iteration    1 A*A^-1 deviation from unit magnitude is 8.88D-15 for   6219.
 Iteration    1 A*A^-1 deviation from orthogonality  is 7.99D-15 for   6219     96.
 Iteration    1 A^-1*A deviation from unit magnitude is 8.44D-15 for     96.
 Iteration    1 A^-1*A deviation from orthogonality  is 5.17D-13 for   4245   4193.
 E= -4637.66116309628    
 DIIS: error= 2.27D-02 at cycle   1 NSaved=   1.
 NSaved= 1 IEnMin= 1 EnMin= -4637.66116309628     IErMin= 1 ErrMin= 2.27D-02
 ErrMax= 2.27D-02  0.00D+00 EMaxC= 1.00D-01 BMatC= 1.76D+00 BMatP= 1.76D+00
 IDIUse=3 WtCom= 7.73D-01 WtEn= 2.27D-01
 Coeff-Com:  0.100D+01
 Coeff-En:   0.100D+01
 Coeff:      0.100D+01
 Gap=     0.354 Goal=   None    Shift=    0.000
 GapD=    0.354 DampG=1.000 DampE=0.500 DampFc=0.5000 IDamp=-1.
 Damping current iteration by 5.00D-01
 RMSDP=2.18D-03 MaxDP=2.48D-01              OVMax= 1.47D-01

 Cycle   2  Pass 1  IDiag  1:
 RMSU=  1.06D-03    CP:  9.76D-01
 E= -4638.34588895066     Delta-E=       -0.684725854382 Rises=F Damp=T
 DIIS: error= 6.11D-03 at cycle   2 NSaved=   2.
 NSaved= 2 IEnMin= 2 EnMin= -4638.34588895066     IErMin= 2 ErrMin= 6.11D-03
 ErrMax= 6.11D-03  0.00D+00 EMaxC= 1.00D-01 BMatC= 1.65D-01 BMatP= 1.76D+00
 IDIUse=3 WtCom= 9.39D-01 WtEn= 6.11D-02
 Coeff-Com: -0.115D-02 0.100D+01
 Coeff-En:   0.000D+00 0.100D+01
 Coeff:     -0.108D-02 0.100D+01
 Gap=     0.193 Goal=   None    Shift=    0.000
 RMSDP=8.55D-04 MaxDP=8.78D-02 DE=-6.85D-01 OVMax= 1.29D-01

 Cycle   3  Pass 1  IDiag  1:
 RMSU=  8.16D-04    CP:  9.58D-01  1.15D+00
 E= -4639.03360299906     Delta-E=       -0.687714048403 Rises=F Damp=F
 DIIS: error= 9.81D-03 at cycle   3 NSaved=   3.
 NSaved= 3 IEnMin= 3 EnMin= -4639.03360299906     IErMin= 2 ErrMin= 6.11D-03
 ErrMax= 9.81D-03  0.00D+00 EMaxC= 1.00D-01 BMatC= 1.42D-01 BMatP= 1.65D-01
 IDIUse=3 WtCom= 9.02D-01 WtEn= 9.81D-02
 Coeff-Com: -0.907D-01 0.521D+00 0.570D+00
 Coeff-En:   0.000D+00 0.000D+00 0.100D+01
 Coeff:     -0.818D-01 0.469D+00 0.612D+00
 Gap=     0.206 Goal=   None    Shift=    0.000
 RMSDP=4.61D-04 MaxDP=3.97D-02 DE=-6.88D-01 OVMax= 6.07D-02

 Cycle   4  Pass 1  IDiag  1:
 RMSU=  2.84D-04    CP:  9.61D-01  1.23D+00  5.69D-01
 E= -4639.13714154702     Delta-E=       -0.103538547955 Rises=F Damp=F
 DIIS: error= 2.71D-03 at cycle   4 NSaved=   4.
 NSaved= 4 IEnMin= 4 EnMin= -4639.13714154702     IErMin= 4 ErrMin= 2.71D-03
 ErrMax= 2.71D-03  0.00D+00 EMaxC= 1.00D-01 BMatC= 2.18D-02 BMatP= 1.42D-01
 IDIUse=3 WtCom= 9.73D-01 WtEn= 2.71D-02
 Coeff-Com: -0.353D-01 0.117D+00 0.323D+00 0.596D+00
 Coeff-En:   0.000D+00 0.000D+00 0.123D+00 0.877D+00
 Coeff:     -0.343D-01 0.114D+00 0.317D+00 0.604D+00
 Gap=     0.198 Goal=   None    Shift=    0.000
 RMSDP=1.56D-04 MaxDP=2.13D-02 DE=-1.04D-01 OVMax= 2.21D-02

 Cycle   5  Pass 1  IDiag  1:
 RMSU=  7.09D-05    CP:  9.60D-01  1.22D+00  6.90D-01  6.61D-01
 E= -4639.15547415884     Delta-E=       -0.018332611824 Rises=F Damp=F
 DIIS: error= 6.84D-04 at cycle   5 NSaved=   5.
 NSaved= 5 IEnMin= 5 EnMin= -4639.15547415884     IErMin= 5 ErrMin= 6.84D-04
 ErrMax= 6.84D-04  0.00D+00 EMaxC= 1.00D-01 BMatC= 1.30D-03 BMatP= 2.18D-02
 IDIUse=3 WtCom= 9.93D-01 WtEn= 6.84D-03
 Coeff-Com: -0.101D-01 0.171D-01 0.106D+00 0.294D+00 0.593D+00
 Coeff-En:   0.000D+00 0.000D+00 0.000D+00 0.000D+00 0.100D+01
 Coeff:     -0.100D-01 0.170D-01 0.105D+00 0.292D+00 0.596D+00
 Gap=     0.197 Goal=   None    Shift=    0.000
 RMSDP=3.81D-05 MaxDP=4.56D-03 DE=-1.83D-02 OVMax= 9.52D-03

 Cycle   6  Pass 1  IDiag  1:
 RMSU=  2.57D-05    CP:  9.60D-01  1.22D+00  6.86D-01  7.06D-01  6.73D-01
 E= -4639.15663838087     Delta-E=       -0.001164222027 Rises=F Damp=F
 DIIS: error= 2.04D-04 at cycle   6 NSaved=   6.
 NSaved= 6 IEnMin= 6 EnMin= -4639.15663838087     IErMin= 6 ErrMin= 2.04D-04
 ErrMax= 2.04D-04  0.00D+00 EMaxC= 1.00D-01 BMatC= 1.14D-04 BMatP= 1.30D-03
 IDIUse=3 WtCom= 9.98D-01 WtEn= 2.04D-03
 Coeff-Com: -0.208D-02-0.230D-03 0.221D-01 0.816D-01 0.285D+00 0.613D+00
 Coeff-En:   0.000D+00 0.000D+00 0.000D+00 0.000D+00 0.000D+00 0.100D+01
 Coeff:     -0.208D-02-0.229D-03 0.221D-01 0.814D-01 0.285D+00 0.614D+00
 Gap=     0.197 Goal=   None    Shift=    0.000
 RMSDP=1.21D-05 MaxDP=1.42D-03 DE=-1.16D-03 OVMax= 1.87D-03

 Cycle   7  Pass 1  IDiag  1:
 RMSU=  8.85D-06    CP:  9.60D-01  1.22D+00  6.89D-01  7.10D-01  7.34D-01
                    CP:  7.41D-01
 E= -4639.15674266736     Delta-E=       -0.000104286488 Rises=F Damp=F
 DIIS: error= 7.94D-05 at cycle   7 NSaved=   7.
 NSaved= 7 IEnMin= 7 EnMin= -4639.15674266736     IErMin= 7 ErrMin= 7.94D-05
 ErrMax= 7.94D-05  0.00D+00 EMaxC= 1.00D-01 BMatC= 1.58D-05 BMatP= 1.14D-04
 IDIUse=1 WtCom= 1.00D+00 WtEn= 0.00D+00
 Coeff-Com:  0.116D-03-0.212D-02-0.260D-02 0.291D-02 0.722D-01 0.314D+00
 Coeff-Com:  0.616D+00
 Coeff:      0.116D-03-0.212D-02-0.260D-02 0.291D-02 0.722D-01 0.314D+00
 Coeff:      0.616D+00
 Gap=     0.197 Goal=   None    Shift=    0.000
 RMSDP=4.37D-06 MaxDP=5.72D-04 DE=-1.04D-04 OVMax= 8.10D-04

 Cycle   8  Pass 1  IDiag  1:
 RMSU=  3.66D-06    CP:  9.60D-01  1.22D+00  6.89D-01  7.11D-01  7.46D-01
                    CP:  8.01D-01  8.39D-01
 E= -4639.15675847462     Delta-E=       -0.000015807263 Rises=F Damp=F
 DIIS: error= 2.20D-05 at cycle   8 NSaved=   8.
 NSaved= 8 IEnMin= 8 EnMin= -4639.15675847462     IErMin= 8 ErrMin= 2.20D-05
 ErrMax= 2.20D-05  0.00D+00 EMaxC= 1.00D-01 BMatC= 1.56D-06 BMatP= 1.58D-05
 IDIUse=1 WtCom= 1.00D+00 WtEn= 0.00D+00
 Coeff-Com:  0.326D-03-0.861D-03-0.486D-02-0.117D-01-0.927D-02 0.489D-01
 Coeff-Com:  0.264D+00 0.713D+00
 Coeff:      0.326D-03-0.861D-03-0.486D-02-0.117D-01-0.927D-02 0.489D-01
 Coeff:      0.264D+00 0.713D+00
 Gap=     0.198 Goal=   None    Shift=    0.000
 RMSDP=1.79D-06 MaxDP=1.67D-04 DE=-1.58D-05 OVMax= 3.90D-04

 Cycle   9  Pass 1  IDiag  1:
 RMSU=  1.30D-06    CP:  9.60D-01  1.22D+00  6.89D-01  7.13D-01  7.52D-01
                    CP:  8.24D-01  9.28D-01  8.69D-01
 E= -4639.15676031918     Delta-E=       -0.000001844555 Rises=F Damp=F
 DIIS: error= 1.14D-05 at cycle   9 NSaved=   9.
 NSaved= 9 IEnMin= 9 EnMin= -4639.15676031918     IErMin= 9 ErrMin= 1.14D-05
 ErrMax= 1.14D-05  0.00D+00 EMaxC= 1.00D-01 BMatC= 3.13D-07 BMatP= 1.56D-06
 IDIUse=1 WtCom= 1.00D+00 WtEn= 0.00D+00
 Coeff-Com:  0.133D-03-0.126D-03-0.219D-02-0.646D-02-0.135D-01-0.147D-01
 Coeff-Com:  0.537D-01 0.363D+00 0.620D+00
 Coeff:      0.133D-03-0.126D-03-0.219D-02-0.646D-02-0.135D-01-0.147D-01
 Coeff:      0.537D-01 0.363D+00 0.620D+00
 Gap=     0.198 Goal=   None    Shift=    0.000
 RMSDP=7.22D-07 MaxDP=6.80D-05 DE=-1.84D-06 OVMax= 1.50D-04

 Cycle  10  Pass 1  IDiag  1:
 RMSU=  5.34D-07    CP:  9.60D-01  1.22D+00  6.89D-01  7.13D-01  7.54D-01
                    CP:  8.30D-01  9.45D-01  9.61D-01  8.36D-01
 E= -4639.15676070084     Delta-E=       -0.000000381660 Rises=F Damp=F
 DIIS: error= 3.48D-06 at cycle  10 NSaved=  10.
 NSaved=10 IEnMin=10 EnMin= -4639.15676070084     IErMin=10 ErrMin= 3.48D-06
 ErrMax= 3.48D-06  0.00D+00 EMaxC= 1.00D-01 BMatC= 2.83D-08 BMatP= 3.13D-07
 IDIUse=1 WtCom= 1.00D+00 WtEn= 0.00D+00
 Coeff-Com:  0.109D-04 0.625D-04-0.301D-03-0.130D-02-0.457D-02-0.135D-01
 Coeff-Com: -0.137D-01 0.528D-01 0.246D+00 0.735D+00
 Coeff:      0.109D-04 0.625D-04-0.301D-03-0.130D-02-0.457D-02-0.135D-01
 Coeff:     -0.137D-01 0.528D-01 0.246D+00 0.735D+00
 Gap=     0.198 Goal=   None    Shift=    0.000
 RMSDP=3.01D-07 MaxDP=2.09D-05 DE=-3.82D-07 OVMax= 1.09D-04

 Cycle  11  Pass 1  IDiag  1:
 RMSU=  1.94D-07    CP:  9.60D-01  1.22D+00  6.89D-01  7.13D-01  7.54D-01
                    CP:  8.32D-01  9.57D-01  9.90D-01  9.62D-01  9.65D-01
 E= -4639.15676074901     Delta-E=       -0.000000048169 Rises=F Damp=F
 DIIS: error= 1.08D-06 at cycle  11 NSaved=  11.
 NSaved=11 IEnMin=11 EnMin= -4639.15676074901     IErMin=11 ErrMin= 1.08D-06
 ErrMax= 1.08D-06  0.00D+00 EMaxC= 1.00D-01 BMatC= 5.90D-09 BMatP= 2.83D-08
 IDIUse=1 WtCom= 1.00D+00 WtEn= 0.00D+00
 Coeff-Com: -0.196D-04 0.491D-04 0.276D-03 0.637D-03 0.597D-03-0.328D-02
 Coeff-Com: -0.152D-01-0.440D-01-0.135D-01 0.329D+00 0.745D+00
 Coeff:     -0.196D-04 0.491D-04 0.276D-03 0.637D-03 0.597D-03-0.328D-02
 Coeff:     -0.152D-01-0.440D-01-0.135D-01 0.329D+00 0.745D+00
 Gap=     0.198 Goal=   None    Shift=    0.000
 RMSDP=1.39D-07 MaxDP=9.30D-06 DE=-4.82D-08 OVMax= 4.47D-05

 Cycle  12  Pass 1  IDiag  1:
 RMSU=  9.08D-08    CP:  9.60D-01  1.22D+00  6.89D-01  7.13D-01  7.54D-01
                    CP:  8.32D-01  9.60D-01  1.00D+00  9.91D-01  1.12D+00
                    CP:  9.47D-01
 E= -4639.15676075954     Delta-E=       -0.000000010532 Rises=F Damp=F
 DIIS: error= 4.73D-07 at cycle  12 NSaved=  12.
 NSaved=12 IEnMin=12 EnMin= -4639.15676075954     IErMin=12 ErrMin= 4.73D-07
 ErrMax= 4.73D-07  0.00D+00 EMaxC= 1.00D-01 BMatC= 1.00D-09 BMatP= 5.90D-09
 IDIUse=1 WtCom= 1.00D+00 WtEn= 0.00D+00
 Coeff-Com: -0.100D-04 0.125D-04 0.170D-03 0.477D-03 0.968D-03 0.318D-03
 Coeff-Com: -0.455D-02-0.271D-01-0.438D-01 0.444D-01 0.346D+00 0.683D+00
 Coeff:     -0.100D-04 0.125D-04 0.170D-03 0.477D-03 0.968D-03 0.318D-03
 Coeff:     -0.455D-02-0.271D-01-0.438D-01 0.444D-01 0.346D+00 0.683D+00
 Gap=     0.198 Goal=   None    Shift=    0.000
 RMSDP=5.51D-08 MaxDP=3.89D-06 DE=-1.05D-08 OVMax= 2.44D-05

 Cycle  13  Pass 1  IDiag  1:
 RMSU=  3.53D-08    CP:  9.60D-01  1.22D+00  6.89D-01  7.13D-01  7.54D-01
                    CP:  8.32D-01  9.60D-01  1.00D+00  1.01D+00  1.16D+00
                    CP:  1.08D+00  9.26D-01
 E= -4639.15676076114     Delta-E=       -0.000000001601 Rises=F Damp=F
 DIIS: error= 2.40D-07 at cycle  13 NSaved=  13.
 NSaved=13 IEnMin=13 EnMin= -4639.15676076114     IErMin=13 ErrMin= 2.40D-07
 ErrMax= 2.40D-07  0.00D+00 EMaxC= 1.00D-01 BMatC= 1.61D-10 BMatP= 1.00D-09
 IDIUse=1 WtCom= 1.00D+00 WtEn= 0.00D+00
 Coeff-Com: -0.856D-06-0.286D-05 0.296D-04 0.101D-03 0.342D-03 0.557D-03
 Coeff-Com:  0.605D-03-0.443D-02-0.171D-01-0.315D-01 0.217D-01 0.294D+00
 Coeff-Com:  0.735D+00
 Coeff:     -0.856D-06-0.286D-05 0.296D-04 0.101D-03 0.342D-03 0.557D-03
 Coeff:      0.605D-03-0.443D-02-0.171D-01-0.315D-01 0.217D-01 0.294D+00
 Coeff:      0.735D+00
 Gap=     0.198 Goal=   None    Shift=    0.000
 RMSDP=2.37D-08 MaxDP=1.62D-06 DE=-1.60D-09 OVMax= 9.13D-06

 Cycle  14  Pass 1  IDiag  1:
 RMSU=  1.37D-08    CP:  9.60D-01  1.22D+00  6.89D-01  7.13D-01  7.54D-01
                    CP:  8.32D-01  9.61D-01  1.00D+00  1.01D+00  1.17D+00
                    CP:  1.14D+00  1.05D+00  9.66D-01
 E= -4639.15676076154     Delta-E=       -0.000000000397 Rises=F Damp=F
 DIIS: error= 9.01D-08 at cycle  14 NSaved=  14.
 NSaved=14 IEnMin=14 EnMin= -4639.15676076154     IErMin=14 ErrMin= 9.01D-08
 ErrMax= 9.01D-08  0.00D+00 EMaxC= 1.00D-01 BMatC= 2.94D-11 BMatP= 1.61D-10
 IDIUse=1 WtCom= 1.00D+00 WtEn= 0.00D+00
 Coeff-Com:  0.152D-05-0.348D-05-0.201D-04-0.499D-04-0.290D-04 0.153D-03
 Coeff-Com:  0.123D-02 0.333D-02 0.500D-03-0.215D-01-0.612D-01 0.401D-02
 Coeff-Com:  0.331D+00 0.743D+00
 Coeff:      0.152D-05-0.348D-05-0.201D-04-0.499D-04-0.290D-04 0.153D-03
 Coeff:      0.123D-02 0.333D-02 0.500D-03-0.215D-01-0.612D-01 0.401D-02
 Coeff:      0.331D+00 0.743D+00
 Gap=     0.198 Goal=   None    Shift=    0.000
 RMSDP=1.08D-08 MaxDP=7.97D-07 DE=-3.97D-10 OVMax= 4.44D-06

 Cycle  15  Pass 1  IDiag  1:
 RMSU=  5.98D-09    CP:  9.60D-01  1.22D+00  6.89D-01  7.13D-01  7.54D-01
                    CP:  8.32D-01  9.61D-01  1.00D+00  1.01D+00  1.18D+00
                    CP:  1.16D+00  1.11D+00  1.11D+00  9.25D-01
 E= -4639.15676076164     Delta-E=       -0.000000000102 Rises=F Damp=F
 DIIS: error= 5.94D-08 at cycle  15 NSaved=  15.
 NSaved=15 IEnMin=15 EnMin= -4639.15676076164     IErMin=15 ErrMin= 5.94D-08
 ErrMax= 5.94D-08  0.00D+00 EMaxC= 1.00D-01 BMatC= 5.50D-12 BMatP= 2.94D-11
 IDIUse=1 WtCom= 1.00D+00 WtEn= 0.00D+00
 Coeff-Com:  0.752D-06-0.995D-06-0.143D-04-0.395D-04-0.657D-04-0.257D-04
 Coeff-Com:  0.498D-03 0.229D-02 0.297D-02-0.432D-02-0.337D-01-0.452D-01
 Coeff-Com:  0.337D-01 0.358D+00 0.686D+00
 Coeff:      0.752D-06-0.995D-06-0.143D-04-0.395D-04-0.657D-04-0.257D-04
 Coeff:      0.498D-03 0.229D-02 0.297D-02-0.432D-02-0.337D-01-0.452D-01
 Coeff:      0.337D-01 0.358D+00 0.686D+00
 Gap=     0.198 Goal=   None    Shift=    0.000
 RMSDP=4.03D-09 MaxDP=2.98D-07 DE=-1.02D-10 OVMax= 1.58D-06

 Error on total polarization charges =  0.06144
 SCF Done:  E(RM062X) =  -4639.15676076     A.U. after   15 cycles
            NFock= 15  Conv=0.40D-08     -V/T= 2.0492
 KE= 4.421415042007D+03 PE=-4.169682792722D+04 EE= 1.718668870024D+04
 SMD-CDS (non-electrostatic) energy       (kcal/mol) =     -13.85
 (included in total energy above)
 Leave Link  502 at Tue Jun 11 18:04:44 2024, MaxMem=  8321499136 cpu:           18114.1 elap:             594.5
 (Enter /opt/packages/gaussian/g16RevC.01/g16/l508.exe)
 QCSCF skips out because SCF is already converged.
 Leave Link  508 at Tue Jun 11 18:04:44 2024, MaxMem=  8321499136 cpu:               0.5 elap:               0.1
 (Enter /opt/packages/gaussian/g16RevC.01/g16/l801.exe)
 DoSCS=F DFT=T ScalE2(SS,OS)=  1.000000  1.000000
 Range of M.O.s used for correlation:     1  1369
 NBasis=  1369 NAE=   290 NBE=   290 NFC=     0 NFV=     0
 NROrb=   1369 NOA=   290 NOB=   290 NVA=  1079 NVB=  1079
 Leave Link  801 at Tue Jun 11 18:04:45 2024, MaxMem=  8321499136 cpu:               0.8 elap:               0.1
 (Enter /opt/packages/gaussian/g16RevC.01/g16/l1101.exe)
 Using compressed storage, NAtomX=   117.
 Will process    118 centers per pass.
 PrsmSu:  requested number of processors reduced to:  21 ShMem   1 Linda.
   1 Symmetry operations used in ECPInt.
 ECPInt:  NShTT=  185745 NPrTT=  697989 LenC2=  126060 LenP2D=  279613.
 LDataN:  DoStor=T MaxTD1= 8 Len=  415
 Number of processors reduced to   4 by ecpmxn.
 R6Disp: Adding Grimme-D3 dispersion energy 1st derivatives to the gradient.
 Leave Link 1101 at Tue Jun 11 18:05:03 2024, MaxMem=  8321499136 cpu:             412.2 elap:              17.8
 (Enter /opt/packages/gaussian/g16RevC.01/g16/l1102.exe)
 Symmetrizing basis deriv contribution to polar:
 IMax=3 JMax=2 DiffMx= 0.00D+00
 Leave Link 1102 at Tue Jun 11 18:05:05 2024, MaxMem=  8321499136 cpu:               8.4 elap:               0.4
 (Enter /opt/packages/gaussian/g16RevC.01/g16/l1110.exe)
 Forming Gx(P) for the SCF density, NAtomX=   117.
 Integral derivatives from FoFJK, PRISM(SPDF).
 Do as many integral derivatives as possible in FoFJK.
 G2DrvN: MDV=    8321486949.
 G2DrvN: will do    59 centers at a time, making    2 passes.
 G2DrvN:  IPasSy=1 do centers    0 through   58.
 Calling FoFCou, ICntrl=  3107 FMM=T I1Cent=   0 AccDes= 0.00D+00.
 FoFJK:  IHMeth= 1 ICntrl=    3107 DoSepK=F KAlg= 0 I1Cent=           0 FoldK=F
 IRaf=         0 NMat=       1 IRICut=       1 DoRegI=T DoRafI=F ISym2E= 0 IDoP0=0 IntGTp=1.
 FoFCou: FMM=T IPFlag=           0 FMFlag=      100000 FMFlg1=        2001
         NFxFlg=           0 DoJE=F BraDBF=F KetDBF=F FulRan=T
         wScrn=  0.000000 ICntrl=      3107 IOpCl=  0 I1Cent=           0 NGrid=           0
         NMat0=    1 NMatS0=      1 NMatT0=    0 NMatD0=    1 NMtDS0=    0 NMtDT0=    0
 Symmetry not used in FoFCou.
 FMM levels:  10  Number of levels for PrismC:   9
 Defaulting to unpruned grid for atomic number  53.
 Defaulting to unpruned grid for atomic number  53.
 Defaulting to unpruned grid for atomic number  53.
 Defaulting to unpruned grid for atomic number  53.
 Defaulting to unpruned grid for atomic number  53.
 Defaulting to unpruned grid for atomic number  53.
 Defaulting to unpruned grid for atomic number  53.
 Defaulting to unpruned grid for atomic number  53.
 Defaulting to unpruned grid for atomic number  53.
 Defaulting to unpruned grid for atomic number  53.
 Defaulting to unpruned grid for atomic number  53.
 Defaulting to unpruned grid for atomic number  53.
 Defaulting to unpruned grid for atomic number  53.
 Defaulting to unpruned grid for atomic number  53.
 Defaulting to unpruned grid for atomic number  53.
 Defaulting to unpruned grid for atomic number  53.
 Defaulting to unpruned grid for atomic number  53.
 Defaulting to unpruned grid for atomic number  53.
 Defaulting to unpruned grid for atomic number  53.
 Defaulting to unpruned grid for atomic number  53.
 Defaulting to unpruned grid for atomic number  53.
 Defaulting to unpruned grid for atomic number  53.
 Defaulting to unpruned grid for atomic number  53.
 Defaulting to unpruned grid for atomic number  53.
 Defaulting to unpruned grid for atomic number  53.
 Defaulting to unpruned grid for atomic number  53.
 Defaulting to unpruned grid for atomic number  53.
 Defaulting to unpruned grid for atomic number  53.
 Defaulting to unpruned grid for atomic number  53.
 Defaulting to unpruned grid for atomic number  53.
 Defaulting to unpruned grid for atomic number  53.
 Defaulting to unpruned grid for atomic number  53.
 G2DrvN:  IPasSy=1 do centers   59 through  117.
 Calling FoFCou, ICntrl=  3107 FMM=T I1Cent=   0 AccDes= 0.00D+00.
 NEqPCM:  Using equilibrium solvation (IEInf=0, Eps=   5.5205, EpsInf=   1.9160)
 G2PCM: DoFxE=T DoFxN=T DoGrad=T DoDP/DQ/DG/TGxP=FFFF NFrqRd=   0 IEInf=0 SqF1=F DoCFld=F IF1Alg=4.
 GePol: Maximum number of non-zero 1st derivatives   =     308
 End of G2Drv F.D. properties file   721 does not exist.
 End of G2Drv F.D. properties file   722 does not exist.
 End of G2Drv F.D. properties file   788 does not exist.
 Leave Link 1110 at Tue Jun 11 18:37:06 2024, MaxMem=  8321499136 cpu:           59531.6 elap:            1920.6
 (Enter /opt/packages/gaussian/g16RevC.01/g16/l1002.exe)
 Minotr:  Closed shell wavefunction.
          IDoAtm=11111111111111111111111111111111111111111111111111
          IDoAtm=11111111111111111111111111111111111111111111111111
          IDoAtm=11111111111111111
 NEqPCM:  Using equilibrium solvation (IEInf=0, Eps=   5.5205, EpsInf=   1.9160)
          Direct CPHF calculation.
          Differentiating once with respect to electric field.
                with respect to dipole field.
          Differentiating once with respect to nuclear coordinates.
          Requested convergence is 1.0D-08 RMS, and 1.0D-07 maximum.
          Secondary convergence is 1.0D-12 RMS, and 1.0D-12 maximum.
          NewPWx=T KeepS1=F KeepF1=F KeepIn=T MapXYZ=F SortEE=F KeepMc=T.
 Defaulting to unpruned grid for atomic number  53.
        36029 words used for storage of precomputed grid.
 Two-electron integral symmetry not used.
          MDV=    8321499136 using IRadAn=       1.
          Solving linear equations simultaneously, MaxMat=      96.
 FoF2E skips out because all densities are zero.
 CalDSu exits because no D1Ps are significant.
 FoFJK:  IHMeth= 1 ICntrl=       0 DoSepK=F KAlg= 0 I1Cent=           0 FoldK=F
 IRaf= 650000000 NMat=      96 IRICut=       1 DoRegI=T DoRafI=F ISym2E= 0 IDoP0=3 IntGTp=3.
 Defaulting to unpruned grid for atomic number  53.
 Defaulting to unpruned grid for atomic number  53.
 Defaulting to unpruned grid for atomic number  53.
 Defaulting to unpruned grid for atomic number  53.
 Defaulting to unpruned grid for atomic number  53.
 Defaulting to unpruned grid for atomic number  53.
 Defaulting to unpruned grid for atomic number  53.
 Defaulting to unpruned grid for atomic number  53.
 Defaulting to unpruned grid for atomic number  53.
 Defaulting to unpruned grid for atomic number  53.
 Defaulting to unpruned grid for atomic number  53.
 Defaulting to unpruned grid for atomic number  53.
 Defaulting to unpruned grid for atomic number  53.
 Defaulting to unpruned grid for atomic number  53.
 Defaulting to unpruned grid for atomic number  53.
 Defaulting to unpruned grid for atomic number  53.
 Defaulting to unpruned grid for atomic number  53.
 Defaulting to unpruned grid for atomic number  53.
 Defaulting to unpruned grid for atomic number  53.
 Defaulting to unpruned grid for atomic number  53.
 Defaulting to unpruned grid for atomic number  53.
 Defaulting to unpruned grid for atomic number  53.
 Defaulting to unpruned grid for atomic number  53.
 Defaulting to unpruned grid for atomic number  53.
 Defaulting to unpruned grid for atomic number  53.
 Defaulting to unpruned grid for atomic number  53.
 Defaulting to unpruned grid for atomic number  53.
 Defaulting to unpruned grid for atomic number  53.
 Defaulting to unpruned grid for atomic number  53.
 Defaulting to unpruned grid for atomic number  53.
 Defaulting to unpruned grid for atomic number  53.
 Defaulting to unpruned grid for atomic number  53.
          There are   354 degrees of freedom in the 1st order CPHF.  IDoFFX=6 NUNeed=     3.
    354 vectors produced by pass  0 Test12= 3.13D-13 1.00D-09 XBig12= 7.21D+02 7.92D+00.
 AX will form    96 AO Fock derivatives at one time.
    354 vectors produced by pass  1 Test12= 3.13D-13 1.00D-09 XBig12= 6.63D+01 7.53D-01.
    354 vectors produced by pass  2 Test12= 3.13D-13 1.00D-09 XBig12= 1.73D+00 1.32D-01.
    351 vectors produced by pass  3 Test12= 3.13D-13 1.00D-09 XBig12= 3.04D-02 1.09D-02.
    351 vectors produced by pass  4 Test12= 3.13D-13 1.00D-09 XBig12= 2.56D-04 8.79D-04.
    351 vectors produced by pass  5 Test12= 3.13D-13 1.00D-09 XBig12= 1.47D-06 6.12D-05.
    259 vectors produced by pass  6 Test12= 3.13D-13 1.00D-09 XBig12= 6.64D-09 3.68D-06.
     44 vectors produced by pass  7 Test12= 3.13D-13 1.00D-09 XBig12= 2.37D-11 2.34D-07.
      3 vectors produced by pass  8 Test12= 3.13D-13 1.00D-09 XBig12= 8.28D-14 1.07D-08.
      3 vectors produced by pass  9 Test12= 3.13D-13 1.00D-09 XBig12= 9.56D-15 2.51D-09.
      3 vectors produced by pass 10 Test12= 3.13D-13 1.00D-09 XBig12= 2.18D-14 4.25D-09.
      3 vectors produced by pass 11 Test12= 3.13D-13 1.00D-09 XBig12= 1.87D-14 3.31D-09.
      3 vectors produced by pass 12 Test12= 3.13D-13 1.00D-09 XBig12= 9.49D-15 2.65D-09.
      3 vectors produced by pass 13 Test12= 3.13D-13 1.00D-09 XBig12= 9.90D-15 2.30D-09.
      3 vectors produced by pass 14 Test12= 3.13D-13 1.00D-09 XBig12= 6.70D-15 2.25D-09.
      3 vectors produced by pass 15 Test12= 3.13D-13 1.00D-09 XBig12= 1.29D-14 2.88D-09.
      3 vectors produced by pass 16 Test12= 3.13D-13 1.00D-09 XBig12= 9.99D-15 2.80D-09.
      3 vectors produced by pass 17 Test12= 3.13D-13 1.00D-09 XBig12= 1.11D-14 2.48D-09.
      3 vectors produced by pass 18 Test12= 3.13D-13 1.00D-09 XBig12= 4.51D-15 1.85D-09.
      3 vectors produced by pass 19 Test12= 3.13D-13 1.00D-09 XBig12= 1.23D-14 3.25D-09.
      3 vectors produced by pass 20 Test12= 3.13D-13 1.00D-09 XBig12= 1.36D-14 2.70D-09.
      3 vectors produced by pass 21 Test12= 3.13D-13 1.00D-09 XBig12= 2.14D-14 3.70D-09.
      3 vectors produced by pass 22 Test12= 3.13D-13 1.00D-09 XBig12= 1.21D-14 3.13D-09.
      3 vectors produced by pass 23 Test12= 3.13D-13 1.00D-09 XBig12= 1.33D-14 2.84D-09.
      3 vectors produced by pass 24 Test12= 3.13D-13 1.00D-09 XBig12= 8.45D-15 2.52D-09.
      2 vectors produced by pass 25 Test12= 3.13D-13 1.00D-09 XBig12= 4.57D-15 1.49D-09.
 InvSVY:  IOpt=1 It=  1 EMax= 3.20D-14
 Solved reduced A of dimension  2471 with   354 vectors.
 FullF1:  Do perturbations      1 to       3.
 Isotropic polarizability for W=    0.000000     1073.15 Bohr**3.
 End of Minotr F.D. properties file   721 does not exist.
 End of Minotr F.D. properties file   722 does not exist.
 End of Minotr F.D. properties file   788 does not exist.
 Leave Link 1002 at Tue Jun 11 20:32:31 2024, MaxMem=  8321499136 cpu:          216052.7 elap:            6923.9
 (Enter /opt/packages/gaussian/g16RevC.01/g16/l601.exe)
 Copying SCF densities to generalized density rwf, IOpCl= 0 IROHF=0.
 Hyperfine terms turned off by default for NAtoms > 100.

 **********************************************************************

            Population analysis using the SCF Density.

 **********************************************************************

 Alpha  occ. eigenvalues --  -90.08963 -90.08907 -25.28551 -25.28437 -25.28139
 Alpha  occ. eigenvalues --  -25.28059 -25.27917 -25.27893 -25.26551 -19.64010
[...]
 .00000149,0.00000412,0.00000224,0.00000167,-0.00000081,0.00000232,-0.0
 0000003,0.00000184,-0.00000404,0.00000354,0.00000024,0.00000096,0.0000
 0209,-0.00000057,-0.00000230,0.00000075,0.00001373,-0.00001293,0.00005
 264,-0.00001968,-0.00000480,0.00001202,-0.00001447,0.00000937,0.000010
 86,-0.00005084,0.00006921,0.00001614,0.00000389,0.00000391,0.00000139,
 -0.00000703,-0.00000262,0.00000547,0.00000963,0.00000664,-0.00000571,-
 0.00000178,0.00000337,-0.00000267,0.00000353,0.00000043,0.00000257,-0.
 00000161,-0.00000162,0.00000207,-0.00000040,-0.00000371,-0.00000166,0.
 00000270,-0.00000358,-0.00000332,-0.00001726,-0.00000442,0.00000915,0.
 00000603,-0.00000205,0.00000185,0.00000068,-0.00000018,-0.00000169,0.0
 0000020,-0.00000005,-0.00000176,-0.00000208,0.00000089,-0.00000282,0.0
 0000277,-0.00000001,0.00001843,0.00000068,-0.00000066,-0.00000146,-0.0
 0001435,0.00005046,0.00003859,-0.00003358,0.00003306,0.00006785,0.0000
 2801,-0.00000242,-0.00004468,-0.00005491,-0.00016406,-0.00003492,-0.00
 002054,-0.00005724,0.00001359,-0.00003397,0.00002027,0.00003991,0.0001
 5470,0.00014084,-0.00002354,0.00004843,0.00004105,0.00001860,0.0000396
 5,0.00003196,0.00000499,0.00000250,0.00000407,-0.00000121,0.00001018,0
 .00011060,-0.00005142,-0.00001464,-0.00001895,0.00000414,-0.00001272,0
 .00001581,-0.00000529,-0.00000228,0.00000257,-0.00000057,-0.00000233,0
 .00001039,0.00000224,-0.00001934,0.00000902,-0.00017010,-0.00002099,-0
 .00002200,0.00007877,0.00002532,-0.00001223,0.00004247,-0.00029468,-0.
 00009311,-0.00019005,0.00006000,0.00003696,0.00002629,0.00017310,0.000
 09060,0.00004144,0.00013391,-0.00004432,0.00013713,-0.00000207,0.00000
 293,-0.00000158,0.00000634,-0.00000121,0.00000253,-0.00004046,-0.00000
 305,0.00003093,0.00084510,-0.00015604,0.00017766,-0.00043713,-0.000787
 35,-0.00032553,0.01249132,-0.02148535,0.00907598,-0.00069393,0.0001755
 1,-0.00001775,0.00168488,0.00122916,0.00030050,-0.00000813,-0.00072108
 ,-0.00027110,-0.00000070,0.00003612,-0.00002876,-0.00003384,0.00037387
 ,-0.00152957,0.00018622,-0.00038441,0.00038034,0.00005874,-0.00005262,
 0.00006755,0.00003381,-0.00005751,-0.00019511,-0.00000651,0.00000299,-
 0.00000211,0.00000508,-0.00000126,0.00000232,0.00000101,-0.00000081,0.
 00000200,-0.00000202,0.00000171,0.00000071,-0.00000075,-0.00000203,-0.
 00000293,0.00000031,-0.00000159,0.00000170,0.00000236,0.00000039,0.000
 00040,0.00000057,-0.00000118,-0.00000073,-0.00000004,-0.00000038,-0.00
 000076,0.00000013,-0.00000018,-0.00000079,-0.00000784,-0.00000053,-0.0
 0001513,0.00000200,0.00000008,0.00000240,0.00000071,0.00000119,0.00000
 426,0.00000469,-0.00000051,0.00000827,-0.01170608,0.02713476,-0.082500
 65,0.00234910,0.03148257,0.00232585,0.04022503,-0.08050352,0.10290483,
 0.00004187,0.00002501,-0.00000483,-0.00007396,0.00001493,-0.00004191,0
 .00009232,0.00002443,0.00007594,-0.00008609,0.00000808,-0.00003708,0.0
 0012848,0.00000669,0.00003251,-0.00003081,-0.00002627,0.00005509,0.000
 01482,-0.00001670,0.00000771,-0.00002025,-0.00000230,0.00000448,0.0000
 1585,-0.00000649,0.00000497,-0.00000524,-0.00000571,0.00000369,-0.0000
 0508,-0.00000052,0.00000605,-0.00000353,0.00000121,0.00000253,-0.00000
 253,-0.00000041,0.00000056,-0.00000124,-0.00000046,0.00000024,-0.00000
 012,-0.00000067,-0.00000143,0.00002092,0.00000354,-0.00001612,-0.00000
 285,-0.00000003,-0.00000260,0.00000166,0.00000117,0.00000127,-0.000001
 82,0.00000175,0.00000520,-0.00000104,0.00000119,0.00000142,0.00000120,
 -0.00000051,-0.00000129,-0.00000252,-0.00000003,0.00000458,0.00000027,
 0.00000179,-0.00000662,-0.00000254,-0.00000159,0.00000111,-0.00000034,
 0.00000012,-0.00000170,0.00000258,-0.00000239,-0.00000344,0.00000131,0
 .00000029,-0.00000193,-0.00002638,0.00000131,0.00001218,-0.00002416,0.
 00002466,-0.00004011,0.00003727,0.00000093,-0.00005964,-0.00001808,0.0
 0001029,0.00000712,0.00003956,-0.00006546,0.00003580,0.00000770,0.0000
 1137,0.00000629,0.00002295,0.00002575,-0.00000908,0.00003768,-0.000016
 97,0.00000870,0.00000373,-0.00001135,-0.00000254,0.00000552,-0.0000004
 2,0.00000056,0.00001120,-0.00000782,-0.00001235,0.00000323,-0.00000193
 ,0.00000051,-0.00000381,-0.00000043,-0.00000219,-0.00000066,0.00000221
 ,-0.00000081,-0.00000024,-0.00000011,0.00000080,0.00000181,0.00000079,
 0.00000406,-0.00000619,0.00000210,-0.00000288,-0.00005981,0.00001348,-
 0.00003651,-0.00004493,0.00000520,-0.00000089,-0.00000382,-0.00000551,
 -0.00000147,0.00005816,-0.00005714,-0.00003182,-0.00000143,-0.00000035
 ,0.00000168,-0.00000156,-0.00001037,0.00000908,-0.00002734,0.00000469,
 -0.00000464,0.00000923,-0.00000136,0.00000200,0.00000489,-0.00000167,0
 .00000159,0.00000016,-0.00000584,0.00000320,0.00000112,-0.00000374,0.0
 0000081,-0.00000943,0.00000632,-0.00000819,0.00001985,0.00000922,-0.00
 002314,-0.00001864,0.00000192,-0.00000132,-0.00000148,-0.00000227,0.00
 000055,-0.00000108,-0.00000279,0.00000053,0.00002047,-0.00001604,0.000
 00736,-0.00001385,-0.00002086,0.00001611,-0.00000055,-0.00000213,0.000
 00006,-0.00002261,-0.00003048,-0.00001763,0.00004577,-0.00007155,-0.00
 005222,-0.00002621,0.00000956,0.00002163,0.00011926,0.00028613,0.00011
 362,0.00003696,0.00003530,0.00005821,0.00002911,-0.00001812,-0.0000271
 2,-0.00005920,-0.00010006,-0.00001510,-0.00002973,-0.00006024,-0.00000
 266,-0.00002576,-0.00002621,0.00000035,-0.00000680,-0.00000168,-0.0000
 0354,-0.00010500,0.00009920,-0.00006958,0.00001929,0.00000967,0.000002
 55,-0.00000896,0.00001362,-0.00001162,-0.00000229,-0.00000161,-0.00000
 485,-0.00000178,-0.00000305,-0.00001026,0.00020789,0.00015127,-0.00008
 904,-0.00010595,-0.00006507,0.00005933,-0.00007159,-0.00002463,0.00001
 784,0.00023872,0.00025844,-0.00014041,-0.00006718,-0.00011475,0.000091
 47,-0.00022046,-0.00010182,0.00010165,-0.00013357,-0.00005357,0.000030
 47,-0.00000117,0.00000044,0.00000130,-0.00000663,-0.00000211,0.0000010
 2,0.00003282,0.00042553,0.00062925,-0.00065650,-0.00074531,0.00090850,
 -0.00039053,-0.00079874,-0.00050243,0.01032795,0.00247579,0.00587229,0
 .00076020,-0.00021293,-0.00059964,0.00000035,-0.00108771,0.00017521,0.
 00032872,0.00059097,0.00016236,0.00002308,-0.00003618,-0.00010545,-0.0
 0065979,0.00038301,0.00018933,0.00013023,0.00033168,0.00021832,0.00002
 107,0.00003396,-0.00001655,-0.00005905,0.00004234,-0.00002855,0.000005
 15,-0.00000202,0.00000079,0.00000339,0.00000368,-0.00000218,-0.0000019
 8,-0.00000367,0.00000178,-0.00000148,-0.00000106,0.00000120,0.00000176
 ,-0.00002182,0.00000164,-0.00000278,0.00000132,-0.00000038,-0.00000226
 ,-0.00000239,0.00000139,0.00000127,-0.00000086,0.00000032,-0.00000051,
 0.00000017,-0.00000008,-0.00000066,0.00000048,-0.00000046,0.00001408,0
 .00002082,-0.00001804,-0.00000957,-0.00000793,0.00000651,-0.00000365,-
 0.00000545,0.00000379,-0.00000175,-0.00000634,0.00000566,-0.12124065,-
 0.01802994,-0.08384420,-0.05312361,-0.03801549,-0.03926714,-0.02553351
 ,0.02262664,-0.04508573,0.19013370,0.00000571,-0.00000456,0.00001082,-
 0.00002185,0.00005085,-0.00000647,-0.00002804,-0.00000153,-0.00000426,
 0.00001626,0.00001116,0.00002146,-0.00002172,-0.00001676,-0.00001092,0
 .00001285,0.00001160,-0.00000325,0.00000073,-0.00001072,-0.00000456,0.
 00000196,0.00000330,0.00000224,-0.00000112,-0.00000250,0.00000185,0.00
 000005,0.00000519,-0.00000145,-0.00000488,0.00000067,0.00000325,0.0000
 0292,-0.00000199,0.00000120,-0.00000052,-0.00000049,-0.00000063,-0.000
 00008,-0.00000024,-0.00000065,0.00000039,-0.00000068,-0.00000173,0.000
 01682,-0.00000999,-0.00000477,0.00000079,-0.00000337,0.00000072,0.0000
 0033,0.00000165,0.00000060,-0.00000129,0.00000360,-0.00000071,0.000000
 69,0.00000087,0.00000089,0.00000111,0.00000017,-0.00000038,-0.00000077
 ,-0.00000301,-0.00000089,-0.00000048,-0.00000316,0.00000013,0.00000018
 ,0.00000205,-0.00000035,0.00000059,-0.00000022,0.,-0.00000077,0.000002
 01,0.00000024,-0.00000096,-0.00000012,-0.00000035,-0.00001462,0.000010
 69,0.00000542,0.00002628,0.00001751,0.00002190,0.00000605,-0.00002495,
 -0.00002229,-0.00002629,0.00000803,0.00000520,-0.00000671,-0.00002005,
 -0.00001226,-0.00000025,0.00000009,-0.00000343,-0.00000309,-0.00000111
 ,-0.00000489,-0.00000600,-0.00000965,-0.00000537,0.00000084,-0.0000063
 0,-0.00000378,0.00000309,0.00000094,0.00000304,0.00000065,-0.00000538,
 -0.00000197,0.00000007,-0.00000147,-0.00000119,0.00000122,0.00000047,0
 .00000250,-0.00000217,0.00000330,0.00000403,-0.00000019,-0.00000090,-0
 .00000118,-0.00000039,0.00000224,0.00000113,0.00000080,-0.00000009,0.0
 0000020,0.00000564,0.00000889,0.00000831,0.00000481,0.00000901,0.00000
 411,-0.00000758,-0.00000090,0.00000061,0.00007013,-0.00010142,-0.00002
 719,-0.00000267,-0.00000326,0.00000250,0.00000486,0.00000377,0.0000000
 4,-0.00001986,-0.00000704,0.00000056,0.00000544,-0.00000478,0.00000221
 ,-0.00000300,0.00000065,0.00000033,0.00000134,0.00000078,0.00000052,0.
 00000121,0.00000133,-0.00000137,-0.00000275,0.00000246,-0.00000302,0.0
 0002060,0.00001330,-0.00001571,-0.00001138,0.00000400,-0.00000162,-0.0
 0000113,-0.00000149,0.00000004,-0.00000017,-0.00000170,0.00000004,0.00
 000563,-0.00000534,0.00000465,-0.00000794,-0.00000330,0.00000513,-0.00
 000094,-0.00000112,-0.00000087,-0.00005046,0.00002444,0.00005688,-0.00
 002809,-0.00006597,-0.00002270,0.00001059,-0.00000132,-0.00002463,0.00
 002537,0.00015747,0.00011999,-0.00000568,-0.00001943,0.00005905,-0.000
 01557,0.00000945,0.00001792,0.00015778,0.00008310,-0.00008155,0.000018
 23,-0.00000147,-0.00000854,0.00001724,0.00001096,-0.00000198,-0.000002
 77,-0.00000303,-0.00000117,-0.00002663,0.00026164,-0.00004250,-0.00000
 681,-0.00001011,-0.00000662,-0.00000578,0.00002258,0.00001035,-0.00000
 316,-0.00000426,-0.00000180,0.00000139,0.00000173,-0.00000079,0.000100
 06,-0.00003194,-0.00005664,-0.00005577,0.00000608,0.00002527,-0.000045
 54,0.00002373,0.00001009,0.00017214,-0.00002210,-0.00006371,-0.0000428
 0,-0.00001388,0.00004461,-0.00017419,0.00003098,0.00009732,-0.00009720
 ,0.00008058,0.00001844,0.00000058,-0.00000296,0.00000351,-0.00000811,0
 .00000157,-0.00000066,0.00003724,0.00064546,0.00074733,-0.00105215,-0.
 00096375,0.00050032,-0.00065666,-0.00210917,-0.00112493,-0.00703561,0.
 00504271,-0.02048439,0.00076444,-0.00062936,0.00022398,0.00048534,0.00
 096285,0.00013283,0.00022178,-0.00011326,-0.00037679,0.00008965,-0.000
 04322,-0.00007760,0.00120617,-0.00011632,0.00042010,-0.00046004,0.0004
 5720,-0.00020850,-0.00007839,0.00008572,-0.00011112,0.00004575,-0.0000
 9011,-0.00008624,0.00000855,-0.00000463,0.00000114,-0.00000336,0.00000
 422,-0.00000055,-0.00000084,0.00000125,0.00000065,0.00000245,-0.000000
 96,0.00000163,0.00000064,-0.00000582,-0.00000121,-0.00000132,0.0000023
 4,-0.00000060,-0.00000333,-0.00000018,0.00000160,-0.00000026,-0.000000
 03,-0.00000123,-0.00000034,-0.00000030,-0.00000049,-0.00000056,-0.0000
 0038,-0.00000054,0.00000847,-0.00000387,-0.00001082,-0.00000370,-0.000
 00041,0.00000261,-0.00000386,0.00000356,0.00000373,-0.00000061,0.00000
 106,0.00000363,-0.01837191,-0.08226865,-0.03861070,-0.04006847,-0.0115
 3328,-0.02579263,0.03297465,-0.00169736,0.04349373,0.03194099,0.091915
 79,-0.00008554,0.00003540,-0.00006944,0.00005980,-0.00013524,-0.000050
 35,0.00000079,0.00007954,-0.00005501,0.00005966,0.00003559,0.00007143,
 0.00000197,0.00004156,-0.00014075,-0.00001336,-0.00007478,0.00015818,0
 .00002032,-0.00003102,-0.00000307,-0.00000532,-0.00000576,0.00000776,0
 .00000598,0.00000063,0.00000422,-0.00000060,-0.00000415,0.00000509,0.0
 0000462,-0.00000018,0.00000451,-0.00000327,0.00000148,0.00000345,-0.00
 000131,-0.00000157,-0.00000250,-0.00000142,-0.00000072,-0.00000182,-0.
 00000297,-0.00000248,-0.00000281,-0.00002472,0.00001240,-0.00000906,-0
 .00000037,0.00000104,-0.00000230,0.00000099,-0.00000021,0.00000324,-0.
 00000711,0.00000361,0.00000170,0.00000068,0.00000107,0.00000359,0.0000
 0143,0.00000019,-0.00000237,-0.00000095,-0.00000223,0.00000556,0.00000
 256,-0.00000115,-0.00000522,-0.00000175,-0.00000035,0.00000303,0.00000
 212,-0.00000035,-0.00000167,0.00000018,0.00000086,-0.00000553,0.000001
 82,-0.00000140,-0.00000263,0.00001967,-0.00000988,0.00000727,0.0000788
 3,0.00005378,-0.00001687,-0.00002630,0.00000254,-0.00009313,-0.0000664
 7,0.00002961,0.00000406,0.00001973,-0.00006717,0.00000415,0.00003925,0
 .00002874,-0.00003096,0.00000203,-0.00000803,-0.00000060,0.00003134,-0
 .00001485,0.00000279,0.00000468,-0.00001703,-0.00001375,0.00000800,-0.
 00000125,0.00001567,0.00002462,0.00001860,-0.00003641,-0.00000183,-0.0
 0000137,-0.00000309,0.00000755,0.00000470,0.00000325,-0.00000270,0.000
 00683,0.00000103,0.00000395,-0.00000892,0.00000737,0.00000109,0.000002
 90,0.00000642,-0.00000358,-0.00000405,0.00000052,0.00000673,-0.0000186
 3,0.00009842,-0.00005917,-0.00000447,0.00002549,-0.00003132,0.00001553
 ,0.00002381,-0.00007596,0.00011027,0.00001870,0.00000576,0.00000512,0.
 00000288,-0.00001142,-0.00000547,0.00000946,0.00001208,0.00001105,-0.0
 0000955,-0.00000209,0.00000499,-0.00000471,0.00000714,0.00000056,0.000
 00479,-0.00000244,-0.00000296,0.00000427,0.00000017,-0.00000574,-0.000
 00293,0.00000370,-0.00000440,-0.00000548,-0.00002889,-0.00000643,0.000
 01553,0.00000610,-0.00000342,0.00000296,0.00000043,-0.00000090,-0.0000
 0296,0.00000021,-0.00000106,-0.00000274,0.00000459,-0.00000494,-0.0000
 0343,0.00000100,-0.00000373,0.00004605,0.00000079,-0.00000198,-0.00000
 268,-0.00002831,0.00012568,0.00010083,-0.00005673,0.00006964,0.0001051
 9,0.00005479,-0.00000759,-0.00009619,-0.00006579,-0.00025967,0.0000165
 2,-0.00007272,-0.00009561,0.00003219,-0.00006608,0.00004345,0.00008546
 ,0.00035130,0.00027726,-0.00000398,0.00008842,0.00007444,0.00004545,0.
 00008679,0.00006574,0.00000889,0.00000358,0.00000860,-0.00000350,-0.00
 010772,0.00019032,-0.00016100,-0.00002447,-0.00004101,0.00001120,-0.00
 003408,0.00003389,-0.00001456,-0.00000608,0.00000484,-0.00000305,-0.00
 000598,0.00002030,0.00000196,0.00005296,0.00006527,-0.00041811,-0.0000
 9502,-0.00007239,0.00020109,0.00001985,-0.00003015,0.00010155,-0.00057
 129,-0.00017582,-0.00042912,0.00010680,0.00006718,0.00006718,0.0003483
 6,0.00018721,0.00010861,0.00023346,-0.00009964,0.00031054,-0.00000397,
 0.00000597,-0.00000206,0.00000832,-0.00000297,0.00000529,-0.00006522,0
 .00001067,-0.00014357,0.00064941,0.00157200,-0.00080443,-0.00174187,-0
 .00291568,0.00063758,-0.02248292,-0.01624765,-0.04147354,0.00075469,-0
 .00071670,0.00046069,0.00385120,0.00340756,-0.00365942,0.00000052,-0.0
 0064112,-0.00069241,0.00008874,0.00000743,-0.00018432,0.00182106,-0.00
 188183,0.00002682,-0.00069669,0.00054717,-0.00037420,-0.00007600,0.000
 12137,-0.00019303,0.00045369,-0.00034680,-0.00037470,-0.00000865,0.000
 00383,-0.00000353,0.00001063,0.00000024,0.00000361,0.00000093,-0.00000
 282,0.00000466,-0.00000396,0.00000261,0.00000236,-0.00000066,-0.000013
 64,-0.00000565,-0.00000079,-0.00000187,0.00000289,0.00000292,-0.000000
 33,0.00000176,0.00000174,-0.00000270,-0.00000168,-0.00000030,-0.000000
 81,-0.00000155,-0.00000022,-0.00000024,-0.00000186,-0.00000599,0.00000
 567,-0.00003747,-0.00000144,-0.00000308,0.00000769,-0.00000127,0.00000
 129,0.00001038,0.00000756,-0.00000293,0.00001799,-0.07993413,-0.037156
 55,-0.24409210,-0.02438634,-0.01559460,0.00868899,-0.03971172,0.028107
 71,-0.03039197,0.16126727,0.04123655,0.31250676\\0.00000037,-0.0000004
 7,0.00000048,-0.00000132,-0.00000050,0.00000016,-0.00000021,0.,0.00000
 117,0.00000039,0.00000070,0.00000078,-0.00000003,0.00000015,0.00000028
 ,-0.00000068,-0.00000199,-0.00000242,0.00000007,0.00000081,0.00000198,
 -0.00000158,-0.00000100,-0.00000103,-0.00000037,-0.00000202,-0.0000012
 2,-0.00000089,-0.00000157,-0.00000221,-0.00000139,-0.00000189,-0.00000
 163,-0.00000081,-0.00000185,-0.00000269,-0.00000155,-0.00000203,-0.000
 00229,-0.00000170,-0.00000249,-0.00000289,-0.00000118,-0.00000177,-0.0
 0000215,-0.00000026,-0.00000082,-0.00000168,-0.00000202,-0.00000145,-0
 .00000153,-0.00000054,-0.00000124,-0.00000144,-0.00000114,-0.00000125,
 -0.00000003,-0.00000084,-0.00000147,-0.00000140,-0.00000065,-0.0000013
 7,-0.00000249,-0.00000159,-0.00000066,-0.00000027,-0.00000193,-0.00000
 059,-0.00000022,-0.00000180,-0.00000075,-0.00000058,-0.00000082,-0.000
 00122,-0.00000175,-0.00000177,-0.00000111,0.00000068,-0.00000115,-0.00
 000150,-0.00000019,-0.00000049,-0.00000089,-0.00000096,-0.00000116,0.,
 0.00000210,-0.00000077,0.00000009,0.00000165,-0.00000130,-0.00000011,0
 .00000256,-0.00000046,0.00000083,0.00000198,0.00000115,0.00000147,0.00
 000028,0.00000233,-0.00000146,0.00000049,0.00000079,0.00000054,0.00000
 068,0.00000095,0.00000101,0.00000110,0.00000159,0.00000156,0.00000067,
 0.00000072,0.00000031,-0.00000009,0.00000088,0.00000006,-0.00000056,0.
 00000140,0.00000075,-0.00000079,0.00000037,0.00000073,0.00000125,0.000
 00116,0.00000143,0.00000113,0.00000009,-0.00000015,-0.00000042,0.00000
 059,0.00000023,-0.00000095,0.00000019,0.00000020,0.00000041,0.00000114
 ,0.00000074,0.00000001,-0.00000210,-0.00000097,0.00000129,-0.00000060,
 0.00000013,0.00000035,0.00000080,0.00000028,-0.00000128,0.00000022,0.0
 0000020,-0.00000057,0.00000090,-0.00000040,-0.00000075,0.00000087,-0.0
 0000058,-0.00000150,0.00000081,-0.00000064,-0.00000221,-0.00000007,-0.
 00000028,-0.00000177,0.00000045,-0.00000012,-0.00000072,0.00000081,0.0
 0000049,-0.00000001,0.00000142,0.00000071,-0.00000057,0.00000027,-0.00
 000072,-0.00000182,0.00000026,-0.00000080,-0.00000272,0.00000043,-0.00
 000064,-0.00000222,0.00000048,0.00000028,-0.00000140,0.00000005,0.0000
 0047,-0.00000078,0.00000067,-0.00000044,-0.00000274,0.00000080,0.00000
 071,0.00000064,-0.00000053,-0.00000022,0.00000090,0.00000137,0.0000016
 2,0.00000060,0.00000033,0.00000145,0.00000194,0.00000188,0.00000140,0.
 00000111,0.00000125,0.00000086,0.,0.00000118,0.00000141,0.00000186,0.0
 0000192,0.00000249,0.00000182,0.00000280,0.00000225,0.00000032,0.00000
 202,0.00000124,-0.00000060,0.00000068,0.00000161,0.00000257,0.00000267
 ,0.00000190,0.00000044,0.00000168,0.00000230,0.00000226,0.00000279,0.0
 0000169,-0.00000051,0.00000286,0.00000263,0.00000126,0.00000196,-0.000
 00032,-0.00000115,0.00000063,0.00000122,0.00000128,0.00000008,0.000000
 22,-0.00000030,0.00000050,0.00000036,0.00000022,-0.00000222,-0.0000010
 5,0.00000073,-0.00000137,-0.00000020,0.00000141,-0.00000035,0.00000009
 ,0.00000045,0.00000051,-0.00000031,-0.00000187,0.00000153,-0.00000050,
 -0.00000195,-0.00000060,-0.00000058,0.00000230,-0.00000030,0.00000223,
 0.00000333,-0.00000143,0.00000056,0.00000408,-0.00000122,0.00000104,0.
 00000455,-0.00000195,-0.00000025,0.00000326,-0.00000081,0.00000113,0.0
 0000478,-0.00000169,0.00000012,0.00000376,-0.00000174,0.00000007,0.000
 00281,-0.00000219,0.00000075,0.00000503,-0.00000172,0.00000095,0.00000
 572,-0.00000297,-0.00000019,0.00000428,-0.00000255,0.00000013,0.000005
 20,0.00000023,-0.00000043,-0.00000289,0.00000076,0.00000006,-0.0000024
 8,0.00000053,-0.00000147,-0.00000308,-0.00000004,-0.00000017,-0.000002
 78,0.00000041,0.00000219,-0.00000171,0.00000032,-0.00000105,-0.0000039
 5,0.00000063,-0.00000139,-0.00000337,0.00000031,-0.00000045,-0.0000023
 2,0.00000049,-0.00000175,-0.00000448,0.00000055,-0.00000108,-0.0000037
 7,-0.00000003,-0.00000111,-0.00000455,0.00000073,-0.00000143,-0.000004
 78,0.00000081,-0.00000106,-0.00000412,0.00000012,-0.00000158,-0.000003
 62,-0.00000083,0.00000121,0.00000468,0.00000005,0.00000210,0.00000547,
 -0.00000060,0.00000178,0.00000431,0.00000031,0.00000183,0.00000432\\\@
 The archive entry for this job was punched.


 THE TEST OF A FIRST RATE INTELLIGENCE IS THE ABILITY TO HOLD TWO OPPOSED
 IDEAS IN THE MIND AT THE SAME TIME, AND STILL RETAIN THE ABILITY TO FUNCTION.
 ONE SHOULD, FOR EXAMPLE, BE ABLE TO SEE THAT THINGS ARE HOPELESS AND YET BE
 DETERMINED TO MAKE THEM OTHERWISE.

                                                       -- F. SCOTT FITZGERALD
 Job cpu time:       3 days 20 hours 44 minutes 20.2 seconds.
 Elapsed time:       0 days  2 hours 58 minutes 45.3 seconds.
 File lengths (MBytes):  RWF=  23700 Int=      0 D2E=      0 Chk=    153 Scr=      1
 Normal termination of Gaussian 16 at Tue Jun 11 20:53:31 2024.
