 Entering Gaussian System, Link 0=g16
 Initial command:
 /opt/packages/gaussian/g16RevC.01/g16/l1.exe "/local/Gau-42433.inp" -scrdir="/local/"
 Entering Link 1 = /opt/packages/gaussian/g16RevC.01/g16/l1.exe PID=     42434.
  
 Copyright (c) 1988-2019, Gaussian, Inc.  All Rights Reserved.
  
 This is part of the Gaussian(R) 16 program.  It is based on
 the Gaussian(R) 09 system (copyright 2009, Gaussian, Inc.),
 the Gaussian(R) 03 system (copyright 2003, Gaussian, Inc.),
 the Gaussian(R) 98 system (copyright 1998, Gaussian, Inc.),
 the Gaussian(R) 94 system (copyright 1995, Gaussian, Inc.),
 the Gaussian 92(TM) system (copyright 1992, Gaussian, Inc.),
 the Gaussian 90(TM) system (copyright 1990, Gaussian, Inc.),
 the Gaussian 88(TM) system (copyright 1988, Gaussian, Inc.),
 the Gaussian 86(TM) system (copyright 1986, Carnegie Mellon
 University), and the Gaussian 82(TM) system (copyright 1983,
 Carnegie Mellon University). Gaussian is a federally registered
 trademark of Gaussian, Inc.
  
 This software contains proprietary and confidential information,
 including trade secrets, belonging to Gaussian, Inc.
  
 This software is provided under written license and may be
 used, copied, transmitted, or stored only in accord with that
 written license.
  
 The following legend is applicable only to US Government
 contracts under FAR:
  
                    RESTRICTED RIGHTS LEGEND
  
 Use, reproduction and disclosure by the US Government is
 subject to restrictions as set forth in subparagraphs (a)
 and (c) of the Commercial Computer Software - Restricted
 Rights clause in FAR 52.227-19.
  
 Gaussian, Inc.
 340 Quinnipiac St., Bldg. 40, Wallingford CT 06492
  
  
 ---------------------------------------------------------------
 Warning -- This program may not be used in any manner that
 competes with the business of Gaussian, Inc. or will provide
 assistance to any competitor of Gaussian, Inc.  The licensee
 of this program is prohibited from giving any competitor of
 Gaussian, Inc. access to this program.  By using this program,
 the user acknowledges that Gaussian, Inc. is engaged in the
 business of creating and licensing software in the field of
 computational chemistry and represents and warrants to the
 licensee that it is not a competitor of Gaussian, Inc. and that
 it will not use this program in any manner prohibited above.
 ---------------------------------------------------------------
  

 Cite this work as:
 Gaussian 16, Revision C.01,
 M. J. Frisch, G. W. Trucks, H. B. Schlegel, G. E. Scuseria, 
 M. A. Robb, J. R. Cheeseman, G. Scalmani, V. Barone, 
 G. A. Petersson, H. Nakatsuji, X. Li, M. Caricato, A. V. Marenich, 
 J. Bloino, B. G. Janesko, R. Gomperts, B. Mennucci, H. P. Hratchian, 
 J. V. Ortiz, A. F. Izmaylov, J. L. Sonnenberg, D. Williams-Young, 
 F. Ding, F. Lipparini, F. Egidi, J. Goings, B. Peng, A. Petrone, 
 T. Henderson, D. Ranasinghe, V. G. Zakrzewski, J. Gao, N. Rega, 
 G. Zheng, W. Liang, M. Hada, M. Ehara, K. Toyota, R. Fukuda, 
 J. Hasegawa, M. Ishida, T. Nakajima, Y. Honda, O. Kitao, H. Nakai, 
 T. Vreven, K. Throssell, J. A. Montgomery, Jr., J. E. Peralta, 
 F. Ogliaro, M. J. Bearpark, J. J. Heyd, E. N. Brothers, K. N. Kudin, 
 V. N. Staroverov, T. A. Keith, R. Kobayashi, J. Normand, 
 K. Raghavachari, A. P. Rendell, J. C. Burant, S. S. Iyengar, 
 J. Tomasi, M. Cossi, J. M. Millam, M. Klene, C. Adamo, R. Cammi, 
 J. W. Ochterski, R. L. Martin, K. Morokuma, O. Farkas, 
 J. B. Foresman, and D. J. Fox, Gaussian, Inc., Wallingford CT, 2019.
 
 ******************************************
 Gaussian 16:  ES64L-G16RevC.01  3-Jul-2019
                11-Jun-2024 
 ******************************************
 %nprocshared=32
 Will use up to   32 processors via shared memory.
 %mem=62GB
 ----------------------------------------------------------------------
 #p m062x genecp freq nosymm scrf=(smd,solvent=propylethanoate) empiric
 aldispersion=gd3 scf=(xqc,maxcycles=128)
 ----------------------------------------------------------------------
 1/10=4,30=1,38=1/1,3;
 2/12=2,15=1,17=6,18=5,40=1/2;
 3/5=7,11=2,16=1,17=8,25=1,30=1,70=32201,71=2,72=169,74=-55,124=31,140=1/1,2,3;
 4//1;
 5/5=2,7=128,8=3,13=1,38=5,53=169,98=1/2,8;
 8/6=4,10=90,11=11/1;
 11/6=1,8=1,9=11,15=111,16=1,31=1/1,2,10;
 10/6=1,31=1/2;
 6/7=2,8=2,9=2,10=2,28=1/1;
 7/8=1,10=1,25=1,30=1/1,2,3,16;
 1/10=4,30=1/3;
 99//99;
 Leave Link    1 at Tue Jun 11 17:54:38 2024, MaxMem=  8321499136 cpu:               1.0 elap:               0.0
 (Enter /opt/packages/gaussian/g16RevC.01/g16/l101.exe)
 -------------------
 Title Card Required
 -------------------
 Symbolic Z-matrix:
 Charge =  0 Multiplicity = 1
 C                    -1.71734  -2.02113   0.09514 
 C                    -0.48519  -2.13292   0.87447 
 C                    -0.5594   -1.60464   2.23822 
 C                    -1.59655  -0.78358   2.56914 
 C                    -2.69485  -0.62368   1.66089 
 N                    -2.71763  -1.28072   0.47016 
 H                    -1.61518  -0.33562   3.55927 
 C                    -1.90476  -2.70014  -1.22022 
 C                    -3.12888  -3.33643  -1.53299 
 C                    -3.34579  -3.80136  -2.83516 
 C                    -1.15078  -3.06833  -3.51855 
 C                    -2.37453  -3.65433  -3.82405 
 H                    -4.28322  -4.31105  -3.06351 
 H                    -2.56304  -4.01963  -4.83454 
 H                    -0.35612  -2.94969  -4.25536 
 C                    -0.93424  -2.61906  -2.22394 
 C                    -4.16826  -3.59937  -0.4985 
 C                    -5.51771  -3.32966  -0.75756 
 C                    -3.81809  -4.17538   0.7318 
 C                    -6.49464  -3.61553   0.19732 
 H                    -5.80281  -2.87697  -1.70933 
 C                    -4.79322  -4.465     1.68276 
 H                    -2.76892  -4.40831   0.93618 
 C                    -6.13617  -4.18473   1.41873 
 H                    -7.54127  -3.39123  -0.01679 
 H                    -4.50471  -4.92039   2.63176 
 H                    -6.90053  -4.41095   2.16424 
 F                     0.25271  -2.08452  -1.94303 
 C                     0.51176  -1.90249   3.23589 
 H                     0.3825   -2.933     3.60423 
 H                     1.50834  -1.84462   2.77801 
 H                     0.45838  -1.20926   4.08337 
 C                    -5.01493   0.0323    1.1947 
 C                    -3.90426   0.96396   3.12737 
 C                    -6.09564  -0.49033   2.13493 
 H                    -4.88606  -0.62845   0.33142 
 H                    -5.27937   1.04307   0.85341 
 C                    -5.03077   0.41663   3.99769 
 H                    -2.96779   1.04165   3.68579 
 H                    -4.17674   1.9712    2.77367 
 H                    -5.84711  -1.52623   2.43543 
 H                    -7.06377  -0.49939   1.61638 
 H                    -4.73952  -0.57928   4.38476 
 H                    -5.20418   1.08681   4.84985 
 N                    -3.76046   0.12063   1.94522 
 O                    -6.22865   0.33262   3.26973 
 I                     0.61916  -3.93519   0.63935 
 H                     0.25832  -1.22553   0.34026 
 C                     3.22361   5.95512  -1.94611 
 C                     2.53993   5.01387  -1.21425 
 C                     3.16994   3.79753  -0.82612 
 C                     4.51301   3.56886  -1.24199 
 C                     5.19941   4.56653  -1.98909 
 C                     4.57016   5.73716  -2.32989 
 H                     2.72159   6.87829  -2.23957 
 H                     1.50104   5.19715  -0.94103 
 C                     2.50047   2.78692  -0.05706 
 C                     5.14149   2.3426   -0.92741 
 H                     6.23092   4.37425  -2.29021 
 H                     5.09881   6.49796  -2.90621 
 C                     4.47915   1.3437   -0.23764 
 C                     3.1396    1.58958   0.20421 
 H                     6.16915   2.17046  -1.25239 
 C                     1.09656   3.074     0.3908 
 C                     0.00853   2.4043   -0.13766 
 C                     0.89423   4.10177   1.37159 
 C                    -1.33181   2.81902   0.16754 
 C                    -0.43474   4.48641   1.70727 
 C                     1.97596   4.73668   2.04254 
 C                    -1.52439   3.85212   1.06537 
 C                    -0.64722   5.50899   2.67309 
 C                     1.74095   5.71221   2.98224 
 H                     2.99974   4.43481   1.81938 
 H                    -2.54019   4.18979   1.27885 
 C                     0.41778   6.11046   3.29614 
 H                    -1.67294   5.7987    2.90959 
 H                     2.58175   6.18275   3.49404 
 H                     0.25012   6.89181   4.03901 
 S                     2.17568   0.33609   1.01951 
 O                     1.58624   0.9442    2.17398 
 O                     2.96056  -0.83611   1.24323 
 S                     0.34746   0.93986  -1.11537 
 O                     1.23261   1.32984  -2.1636 
 O                    -0.88209   0.31057  -1.47866 
 N                     1.05483  -0.05596  -0.06836 
 C                     5.2058    0.12946  -0.0114 
 C                     5.92918  -0.83712   0.10587 
 C                    -2.48237   2.27121  -0.48735 
 C                    -3.45412   1.86033  -1.08618 
 C                    -4.4853    1.24191  -1.86358 
 C                    -5.76785   1.8045   -2.01428 
 C                    -4.19501   0.02173  -2.49584 
 C                    -6.73783   1.15499  -2.77238 
 C                    -5.16784  -0.61488  -3.26257 
 H                    -3.19671  -0.4043   -2.37015 
 C                    -6.43883  -0.05629  -3.39665 
 H                    -7.72647   1.60099  -2.88155 
 H                    -4.92697  -1.55686  -3.75873 
 H                    -7.20055  -0.55803  -3.99475 
 C                     6.74139  -2.00611   0.26109 
 C                     8.08793  -2.03079  -0.15648 
 C                     6.19028  -3.16012   0.8385 
 C                     8.85538  -3.18031   0.00239 
 C                     6.9636   -4.30707   0.99442 
 H                     5.14787  -3.13785   1.15824 
 C                     8.29399  -4.32038   0.57816 
 H                     9.89492  -3.18432  -0.32549 
 H                     6.52172  -5.19738   1.4443 
 H                     8.89986  -5.21908   0.69971 
 C                     8.69388  -0.79746  -0.77547 
 F                     8.66961   0.24575   0.06137 
 F                     8.04144  -0.41731  -1.87928 
 F                     9.96825  -0.98891  -1.12227 
 C                    -6.07482   3.13216  -1.37237 
 F                    -5.27894   4.10182  -1.83008 
 F                    -5.9084    3.10168  -0.04099 
 F                    -7.33227   3.51606  -1.59408 
 
 ITRead=  0  0  0  0  0  0  0  0  0  0  0  0  0  0  0  0  0  0  0  0
 ITRead=  0  0  0  0  0  0  0  0  0  0  0  0  0  0  0  0  0  0  0  0
 ITRead=  0  0  0  0  0  0  0  0  0  0  0  0  0  0  0  0  0  0  0  0
 ITRead=  0  0  0  0  0  0  0  0  0  0  0  0  0  0  0  0  0  0  0  0
 ITRead=  0  0  0  0  0  0  0  0  0  0  0  0  0  0  0  0  0  0  0  0
 ITRead=  0  0  0  0  0  0  0  0  0  0  0  0  0  0  0  0  0
 MicOpt= -1 -1 -1 -1 -1 -1 -1 -1 -1 -1 -1 -1 -1 -1 -1 -1 -1 -1 -1 -1
 MicOpt= -1 -1 -1 -1 -1 -1 -1 -1 -1 -1 -1 -1 -1 -1 -1 -1 -1 -1 -1 -1
 MicOpt= -1 -1 -1 -1 -1 -1 -1 -1 -1 -1 -1 -1 -1 -1 -1 -1 -1 -1 -1 -1
 MicOpt= -1 -1 -1 -1 -1 -1 -1 -1 -1 -1 -1 -1 -1 -1 -1 -1 -1 -1 -1 -1
 MicOpt= -1 -1 -1 -1 -1 -1 -1 -1 -1 -1 -1 -1 -1 -1 -1 -1 -1 -1 -1 -1
 MicOpt= -1 -1 -1 -1 -1 -1 -1 -1 -1 -1 -1 -1 -1 -1 -1 -1 -1
 NAtoms=    117 NQM=      117 NQMF=       0 NMMI=      0 NMMIF=      0
                NMic=       0 NMicF=      0.
                    Isotopes and Nuclear Properties:
 (Nuclear quadrupole moments (NQMom) in fm**2, nuclear magnetic moments (NMagM)
  in nuclear magnetons)

  Atom         1           2           3           4           5           6           7           8           9          10
 IAtWgt=          12          12          12          12          12          14           1          12          12          12
 AtmWgt=  12.0000000  12.0000000  12.0000000  12.0000000  12.0000000  14.0030740   1.0078250  12.0000000  12.0000000  12.0000000
 NucSpn=           0           0           0           0           0           2           1           0           0           0
 AtZEff=   0.0000000   0.0000000   0.0000000   0.0000000   0.0000000   0.0000000   0.0000000   0.0000000   0.0000000   0.0000000
 NQMom=    0.0000000   0.0000000   0.0000000   0.0000000   0.0000000   2.0440000   0.0000000   0.0000000   0.0000000   0.0000000
 NMagM=    0.0000000   0.0000000   0.0000000   0.0000000   0.0000000   0.4037610   2.7928460   0.0000000   0.0000000   0.0000000
 AtZNuc=   6.0000000   6.0000000   6.0000000   6.0000000   6.0000000   7.0000000   1.0000000   6.0000000   6.0000000   6.0000000

  Atom        11          12          13          14          15          16          17          18          19          20
 IAtWgt=          12          12           1           1           1          12          12          12          12          12
 AtmWgt=  12.0000000  12.0000000   1.0078250   1.0078250   1.0078250  12.0000000  12.0000000  12.0000000  12.0000000  12.0000000
 NucSpn=           0           0           1           1           1           0           0           0           0           0
 AtZEff=   0.0000000   0.0000000   0.0000000   0.0000000   0.0000000   0.0000000   0.0000000   0.0000000   0.0000000   0.0000000
 NQMom=    0.0000000   0.0000000   0.0000000   0.0000000   0.0000000   0.0000000   0.0000000   0.0000000   0.0000000   0.0000000
 NMagM=    0.0000000   0.0000000   2.7928460   2.7928460   2.7928460   0.0000000   0.0000000   0.0000000   0.0000000   0.0000000
 AtZNuc=   6.0000000   6.0000000   1.0000000   1.0000000   1.0000000   6.0000000   6.0000000   6.0000000   6.0000000   6.0000000

  Atom        21          22          23          24          25          26          27          28          29          30
 IAtWgt=           1          12           1          12           1           1           1          19          12           1
 AtmWgt=   1.0078250  12.0000000   1.0078250  12.0000000   1.0078250   1.0078250   1.0078250  18.9984032  12.0000000   1.0078250
 NucSpn=           1           0           1           0           1           1           1           1           0           1
 AtZEff=   0.0000000   0.0000000   0.0000000   0.0000000   0.0000000   0.0000000   0.0000000   0.0000000   0.0000000   0.0000000
 NQMom=    0.0000000   0.0000000   0.0000000   0.0000000   0.0000000   0.0000000   0.0000000   0.0000000   0.0000000   0.0000000
 NMagM=    2.7928460   0.0000000   2.7928460   0.0000000   2.7928460   2.7928460   2.7928460   2.6288670   0.0000000   2.7928460
 AtZNuc=   1.0000000   6.0000000   1.0000000   6.0000000   1.0000000   1.0000000   1.0000000   9.0000000   6.0000000   1.0000000

  Atom        31          32          33          34          35          36          37          38          39          40
 IAtWgt=           1           1          12          12          12           1           1          12           1           1
 AtmWgt=   1.0078250   1.0078250  12.0000000  12.0000000  12.0000000   1.0078250   1.0078250  12.0000000   1.0078250   1.0078250
 NucSpn=           1           1           0           0           0           1           1           0           1           1
 AtZEff=   0.0000000   0.0000000   0.0000000   0.0000000   0.0000000   0.0000000   0.0000000   0.0000000   0.0000000   0.0000000
 NQMom=    0.0000000   0.0000000   0.0000000   0.0000000   0.0000000   0.0000000   0.0000000   0.0000000   0.0000000   0.0000000
 NMagM=    2.7928460   2.7928460   0.0000000   0.0000000   0.0000000   2.7928460   2.7928460   0.0000000   2.7928460   2.7928460
 AtZNuc=   1.0000000   1.0000000   6.0000000   6.0000000   6.0000000   1.0000000   1.0000000   6.0000000   1.0000000   1.0000000

  Atom        41          42          43          44          45          46          47          48          49          50
 IAtWgt=           1           1           1           1          14          16         127           1          12          12
 AtmWgt=   1.0078250   1.0078250   1.0078250   1.0078250  14.0030740  15.9949146 126.9004000   1.0078250  12.0000000  12.0000000
 NucSpn=           1           1           1           1           2           0           5           1           0           0
 AtZEff=   0.0000000   0.0000000   0.0000000   0.0000000   0.0000000   0.0000000   0.0000000   0.0000000   0.0000000   0.0000000
 NQMom=    0.0000000   0.0000000   0.0000000   0.0000000   2.0440000   0.0000000 -71.0000000   0.0000000   0.0000000   0.0000000
 NMagM=    2.7928460   2.7928460   2.7928460   2.7928460   0.4037610   0.0000000   2.8132800   2.7928460   0.0000000   0.0000000
 AtZNuc=   1.0000000   1.0000000   1.0000000   1.0000000   7.0000000   8.0000000  53.0000000   1.0000000   6.0000000   6.0000000

  Atom        51          52          53          54          55          56          57          58          59          60
 IAtWgt=          12          12          12          12           1           1          12          12           1           1
 AtmWgt=  12.0000000  12.0000000  12.0000000  12.0000000   1.0078250   1.0078250  12.0000000  12.0000000   1.0078250   1.0078250
 NucSpn=           0           0           0           0           1           1           0           0           1           1
 AtZEff=   0.0000000   0.0000000   0.0000000   0.0000000   0.0000000   0.0000000   0.0000000   0.0000000   0.0000000   0.0000000
 NQMom=    0.0000000   0.0000000   0.0000000   0.0000000   0.0000000   0.0000000   0.0000000   0.0000000   0.0000000   0.0000000
 NMagM=    0.0000000   0.0000000   0.0000000   0.0000000   2.7928460   2.7928460   0.0000000   0.0000000   2.7928460   2.7928460
 AtZNuc=   6.0000000   6.0000000   6.0000000   6.0000000   1.0000000   1.0000000   6.0000000   6.0000000   1.0000000   1.0000000

  Atom        61          62          63          64          65          66          67          68          69          70
 IAtWgt=          12          12           1          12          12          12          12          12          12          12
 AtmWgt=  12.0000000  12.0000000   1.0078250  12.0000000  12.0000000  12.0000000  12.0000000  12.0000000  12.0000000  12.0000000
 NucSpn=           0           0           1           0           0           0           0           0           0           0
 AtZEff=   0.0000000   0.0000000   0.0000000   0.0000000   0.0000000   0.0000000   0.0000000   0.0000000   0.0000000   0.0000000
 NQMom=    0.0000000   0.0000000   0.0000000   0.0000000   0.0000000   0.0000000   0.0000000   0.0000000   0.0000000   0.0000000
 NMagM=    0.0000000   0.0000000   2.7928460   0.0000000   0.0000000   0.0000000   0.0000000   0.0000000   0.0000000   0.0000000
 AtZNuc=   6.0000000   6.0000000   1.0000000   6.0000000   6.0000000   6.0000000   6.0000000   6.0000000   6.0000000   6.0000000

  Atom        71          72          73          74          75          76          77          78          79          80
 IAtWgt=          12          12           1           1          12           1           1           1          32          16
 AtmWgt=  12.0000000  12.0000000   1.0078250   1.0078250  12.0000000   1.0078250   1.0078250   1.0078250  31.9720718  15.9949146
 NucSpn=           0           0           1           1           0           1           1           1           0           0
 AtZEff=   0.0000000   0.0000000   0.0000000   0.0000000   0.0000000   0.0000000   0.0000000   0.0000000   0.0000000   0.0000000
 NQMom=    0.0000000   0.0000000   0.0000000   0.0000000   0.0000000   0.0000000   0.0000000   0.0000000   0.0000000   0.0000000
 NMagM=    0.0000000   0.0000000   2.7928460   2.7928460   0.0000000   2.7928460   2.7928460   2.7928460   0.0000000   0.0000000
 AtZNuc=   6.0000000   6.0000000   1.0000000   1.0000000   6.0000000   1.0000000   1.0000000   1.0000000  16.0000000   8.0000000

  Atom        81          82          83          84          85          86          87          88          89          90
 IAtWgt=          16          32          16          16          14          12          12          12          12          12
 AtmWgt=  15.9949146  31.9720718  15.9949146  15.9949146  14.0030740  12.0000000  12.0000000  12.0000000  12.0000000  12.0000000
 NucSpn=           0           0           0           0           2           0           0           0           0           0
 AtZEff=   0.0000000   0.0000000   0.0000000   0.0000000   0.0000000   0.0000000   0.0000000   0.0000000   0.0000000   0.0000000
 NQMom=    0.0000000   0.0000000   0.0000000   0.0000000   2.0440000   0.0000000   0.0000000   0.0000000   0.0000000   0.0000000
 NMagM=    0.0000000   0.0000000   0.0000000   0.0000000   0.4037610   0.0000000   0.0000000   0.0000000   0.0000000   0.0000000
 AtZNuc=   8.0000000  16.0000000   8.0000000   8.0000000   7.0000000   6.0000000   6.0000000   6.0000000   6.0000000   6.0000000

  Atom        91          92          93          94          95          96          97          98          99         100
 IAtWgt=          12          12          12          12           1          12           1           1           1          12
 AtmWgt=  12.0000000  12.0000000  12.0000000  12.0000000   1.0078250  12.0000000   1.0078250   1.0078250   1.0078250  12.0000000
 NucSpn=           0           0           0           0           1           0           1           1           1           0
 AtZEff=   0.0000000   0.0000000   0.0000000   0.0000000   0.0000000   0.0000000   0.0000000   0.0000000   0.0000000   0.0000000
 NQMom=    0.0000000   0.0000000   0.0000000   0.0000000   0.0000000   0.0000000   0.0000000   0.0000000   0.0000000   0.0000000
 NMagM=    0.0000000   0.0000000   0.0000000   0.0000000   2.7928460   0.0000000   2.7928460   2.7928460   2.7928460   0.0000000
 AtZNuc=   6.0000000   6.0000000   6.0000000   6.0000000   1.0000000   6.0000000   1.0000000   1.0000000   1.0000000   6.0000000

  Atom       101         102         103         104         105         106         107         108         109         110
 IAtWgt=          12          12          12          12           1          12           1           1           1          12
 AtmWgt=  12.0000000  12.0000000  12.0000000  12.0000000   1.0078250  12.0000000   1.0078250   1.0078250   1.0078250  12.0000000
 NucSpn=           0           0           0           0           1           0           1           1           1           0
 AtZEff=   0.0000000   0.0000000   0.0000000   0.0000000   0.0000000   0.0000000   0.0000000   0.0000000   0.0000000   0.0000000
 NQMom=    0.0000000   0.0000000   0.0000000   0.0000000   0.0000000   0.0000000   0.0000000   0.0000000   0.0000000   0.0000000
 NMagM=    0.0000000   0.0000000   0.0000000   0.0000000   2.7928460   0.0000000   2.7928460   2.7928460   2.7928460   0.0000000
 AtZNuc=   6.0000000   6.0000000   6.0000000   6.0000000   1.0000000   6.0000000   1.0000000   1.0000000   1.0000000   6.0000000

  Atom       111         112         113         114         115         116         117
 IAtWgt=          19          19          19          12          19          19          19
 AtmWgt=  18.9984032  18.9984032  18.9984032  12.0000000  18.9984032  18.9984032  18.9984032
 NucSpn=           1           1           1           0           1           1           1
 AtZEff=   0.0000000   0.0000000   0.0000000   0.0000000   0.0000000   0.0000000   0.0000000
 NQMom=    0.0000000   0.0000000   0.0000000   0.0000000   0.0000000   0.0000000   0.0000000
 NMagM=    2.6288670   2.6288670   2.6288670   0.0000000   2.6288670   2.6288670   2.6288670
 AtZNuc=   9.0000000   9.0000000   9.0000000   6.0000000   9.0000000   9.0000000   9.0000000
 Leave Link  101 at Tue Jun 11 17:54:38 2024, MaxMem=  8321499136 cpu:               2.2 elap:               0.1
 (Enter /opt/packages/gaussian/g16RevC.01/g16/l103.exe)

 GradGradGradGradGradGradGradGradGradGradGradGradGradGradGradGradGradGrad
 Berny optimization.
 Initialization pass.
 Trust Radius=3.00D-01 FncErr=1.00D-07 GrdErr=1.00D-07 EigMax=2.50D+02 EigMin=1.00D-04
 Number of steps in this run=      2 maximum allowed number of steps=      2.
 GradGradGradGradGradGradGradGradGradGradGradGradGradGradGradGradGradGrad

 Leave Link  103 at Tue Jun 11 17:54:38 2024, MaxMem=  8321499136 cpu:               0.6 elap:               0.0
 (Enter /opt/packages/gaussian/g16RevC.01/g16/l202.exe)
 Symmetry turned off by external request.
 Stoichiometry    C60H39F7IN3O5S2
 Framework group  C1[X(C60H39F7IN3O5S2)]
 Deg. of freedom   345
 Full point group                 C1      NOp   1
                          Input orientation:                          
 ---------------------------------------------------------------------
 Center     Atomic      Atomic             Coordinates (Angstroms)
 Number     Number       Type             X           Y           Z
 ---------------------------------------------------------------------
      1          6           0       -1.717341   -2.021134    0.095143
      2          6           0       -0.485185   -2.132917    0.874472
      3          6           0       -0.559396   -1.604636    2.238217
      4          6           0       -1.596553   -0.783584    2.569144
      5          6           0       -2.694850   -0.623678    1.660885
      6          7           0       -2.717633   -1.280724    0.470156
      7          1           0       -1.615180   -0.335619    3.559273
      8          6           0       -1.904757   -2.700139   -1.220215
      9          6           0       -3.128881   -3.336425   -1.532986
     10          6           0       -3.345785   -3.801360   -2.835156
     11          6           0       -1.150777   -3.068332   -3.518553
     12          6           0       -2.374525   -3.654327   -3.824054
     13          1           0       -4.283220   -4.311053   -3.063511
     14          1           0       -2.563039   -4.019632   -4.834544
     15          1           0       -0.356120   -2.949688   -4.255360
     16          6           0       -0.934237   -2.619060   -2.223940
     17          6           0       -4.168259   -3.599368   -0.498498
     18          6           0       -5.517713   -3.329660   -0.757561
     19          6           0       -3.818089   -4.175383    0.731798
     20          6           0       -6.494638   -3.615529    0.197320
     21          1           0       -5.802811   -2.876973   -1.709331
     22          6           0       -4.793222   -4.464996    1.682759
     23          1           0       -2.768917   -4.408308    0.936180
     24          6           0       -6.136166   -4.184735    1.418732
     25          1           0       -7.541268   -3.391231   -0.016785
     26          1           0       -4.504707   -4.920388    2.631763
     27          1           0       -6.900534   -4.410954    2.164237
     28          9           0        0.252710   -2.084522   -1.943032
     29          6           0        0.511755   -1.902492    3.235893
     30          1           0        0.382496   -2.933004    3.604232
     31          1           0        1.508335   -1.844622    2.778005
     32          1           0        0.458379   -1.209257    4.083371
     33          6           0       -5.014929    0.032300    1.194702
     34          6           0       -3.904264    0.963963    3.127367
     35          6           0       -6.095640   -0.490333    2.134931
     36          1           0       -4.886061   -0.628452    0.331421
     37          1           0       -5.279373    1.043067    0.853412
     38          6           0       -5.030774    0.416633    3.997688
     39          1           0       -2.967786    1.041650    3.685790
     40          1           0       -4.176744    1.971197    2.773672
     41          1           0       -5.847108   -1.526230    2.435431
     42          1           0       -7.063772   -0.499391    1.616382
     43          1           0       -4.739518   -0.579278    4.384756
     44          1           0       -5.204181    1.086806    4.849850
     45          7           0       -3.760459    0.120630    1.945215
     46          8           0       -6.228650    0.332623    3.269734
     47         53           0        0.619161   -3.935192    0.639345
     48          1           0        0.258317   -1.225525    0.340263
     49          6           0        3.223607    5.955118   -1.946105
     50          6           0        2.539934    5.013867   -1.214254
     51          6           0        3.169935    3.797534   -0.826119
     52          6           0        4.513013    3.568858   -1.241985
     53          6           0        5.199407    4.566527   -1.989088
     54          6           0        4.570163    5.737163   -2.329889
     55          1           0        2.721592    6.878286   -2.239566
     56          1           0        1.501036    5.197151   -0.941034
     57          6           0        2.500473    2.786918   -0.057062
     58          6           0        5.141487    2.342596   -0.927412
     59          1           0        6.230916    4.374250   -2.290205
     60          1           0        5.098807    6.497964   -2.906206
     61          6           0        4.479152    1.343697   -0.237640
     62          6           0        3.139602    1.589581    0.204213
     63          1           0        6.169145    2.170460   -1.252388
     64          6           0        1.096564    3.073999    0.390800
     65          6           0        0.008531    2.404299   -0.137656
     66          6           0        0.894225    4.101767    1.371590
     67          6           0       -1.331805    2.819016    0.167544
     68          6           0       -0.434735    4.486410    1.707273
     69          6           0        1.975957    4.736684    2.042537
     70          6           0       -1.524385    3.852122    1.065368
     71          6           0       -0.647221    5.508988    2.673087
     72          6           0        1.740952    5.712207    2.982244
     73          1           0        2.999743    4.434812    1.819383
     74          1           0       -2.540192    4.189791    1.278853
     75          6           0        0.417778    6.110464    3.296138
     76          1           0       -1.672937    5.798699    2.909585
     77          1           0        2.581748    6.182753    3.494039
     78          1           0        0.250121    6.891813    4.039012
     79         16           0        2.175682    0.336086    1.019514
     80          8           0        1.586239    0.944199    2.173982
     81          8           0        2.960564   -0.836112    1.243232
     82         16           0        0.347462    0.939857   -1.115366
     83          8           0        1.232605    1.329843   -2.163602
     84          8           0       -0.882091    0.310566   -1.478655
     85          7           0        1.054830   -0.055957   -0.068362
     86          6           0        5.205795    0.129455   -0.011397
     87          6           0        5.929176   -0.837118    0.105873
     88          6           0       -2.482367    2.271205   -0.487349
     89          6           0       -3.454117    1.860330   -1.086176
     90          6           0       -4.485298    1.241911   -1.863581
     91          6           0       -5.767852    1.804496   -2.014283
     92          6           0       -4.195005    0.021726   -2.495837
     93          6           0       -6.737828    1.154989   -2.772375
     94          6           0       -5.167835   -0.614881   -3.262569
     95          1           0       -3.196708   -0.404303   -2.370154
     96          6           0       -6.438834   -0.056292   -3.396649
     97          1           0       -7.726466    1.600985   -2.881554
     98          1           0       -4.926974   -1.556857   -3.758731
     99          1           0       -7.200554   -0.558028   -3.994750
    100          6           0        6.741387   -2.006113    0.261086
    101          6           0        8.087935   -2.030792   -0.156476
    102          6           0        6.190281   -3.160123    0.838495
    103          6           0        8.855381   -3.180306    0.002389
    104          6           0        6.963601   -4.307066    0.994424
    105          1           0        5.147868   -3.137847    1.158240
    106          6           0        8.293988   -4.320377    0.578163
    107          1           0        9.894919   -3.184320   -0.325488
    108          1           0        6.521720   -5.197382    1.444300
    109          1           0        8.899862   -5.219075    0.699706
    110          6           0        8.693883   -0.797458   -0.775466
    111          9           0        8.669608    0.245746    0.061367
    112          9           0        8.041440   -0.417310   -1.879277
    113          9           0        9.968250   -0.988911   -1.122273
    114          6           0       -6.074823    3.132163   -1.372373
    115          9           0       -5.278942    4.101815   -1.830078
    116          9           0       -5.908396    3.101675   -0.040988
    117          9           0       -7.332274    3.516061   -1.594077
 ---------------------------------------------------------------------
 Rotational constants (GHZ):           0.0346794           0.0185500           0.0146707
 Leave Link  202 at Tue Jun 11 17:54:38 2024, MaxMem=  8321499136 cpu:               0.4 elap:               0.0
 (Enter /opt/packages/gaussian/g16RevC.01/g16/l301.exe)
 General basis read from cards:  (5D, 7F)
 Centers:       1      2      3      4      5      8      9     10     11     12
 Centers:      16     17     18     19     20     22     24     29     33     34
 Centers:      35     38     49     50     51     52     53     54     57     58
 Centers:      61     62     64     65     66     67     68     69     70     71
 Centers:      72     75     86     87     88     89     90     91     92     93
 Centers:      94     96    100    101    102    103    104    106    110    114
 Centers:       7     13     14     15     21     23     25     26     27     30
 Centers:      31     32     36     37     39     40     41     42     43     44
 Centers:      48     55     56     59     60     63     73     74     76     77
 Centers:      78     95     97     98     99    105    107    108    109      6
 Centers:      45     85     28    111    112    113    115    116    117     46
 Centers:      80     81     83     84
 def2svp
 ****
 Centers:      47     79     82
 def2tzvp
 ****
 ======================================================================================================
                                       Pseudopotential Parameters
 ======================================================================================================
  Center     Atomic      Valence      Angular      Power
  Number     Number     Electrons     Momentum     of R      Exponent        Coefficient   SO-Coeffient
 ======================================================================================================
    1          6
                                   No pseudopotential on this center.
    2          6
                                   No pseudopotential on this center.
    3          6
                                   No pseudopotential on this center.
    4          6
                                   No pseudopotential on this center.
    5          6
                                   No pseudopotential on this center.
    6          7
                                   No pseudopotential on this center.
    7          1
                                   No pseudopotential on this center.
    8          6
                                   No pseudopotential on this center.
    9          6
                                   No pseudopotential on this center.
   10          6
                                   No pseudopotential on this center.
   11          6
                                   No pseudopotential on this center.
   12          6
                                   No pseudopotential on this center.
   13          1
                                   No pseudopotential on this center.
   14          1
                                   No pseudopotential on this center.
   15          1
                                   No pseudopotential on this center.
   16          6
                                   No pseudopotential on this center.
   17          6
                                   No pseudopotential on this center.
   18          6
                                   No pseudopotential on this center.
   19          6
                                   No pseudopotential on this center.
   20          6
                                   No pseudopotential on this center.
   21          1
                                   No pseudopotential on this center.
   22          6
                                   No pseudopotential on this center.
   23          1
                                   No pseudopotential on this center.
   24          6
                                   No pseudopotential on this center.
   25          1
                                   No pseudopotential on this center.
   26          1
                                   No pseudopotential on this center.
   27          1
                                   No pseudopotential on this center.
   28          9
                                   No pseudopotential on this center.
   29          6
                                   No pseudopotential on this center.
   30          1
                                   No pseudopotential on this center.
   31          1
                                   No pseudopotential on this center.
   32          1
                                   No pseudopotential on this center.
   33          6
                                   No pseudopotential on this center.
   34          6
                                   No pseudopotential on this center.
   35          6
                                   No pseudopotential on this center.
   36          1
                                   No pseudopotential on this center.
   37          1
                                   No pseudopotential on this center.
   38          6
                                   No pseudopotential on this center.
   39          1
                                   No pseudopotential on this center.
   40          1
                                   No pseudopotential on this center.
   41          1
                                   No pseudopotential on this center.
   42          1
                                   No pseudopotential on this center.
   43          1
                                   No pseudopotential on this center.
   44          1
                                   No pseudopotential on this center.
   45          7
                                   No pseudopotential on this center.
   46          8
                                   No pseudopotential on this center.
   47         53           25
                                      G and up 
                                                     2        1.0000000        0.00000000    0.00000000
                                      S - G
                                                     2       40.0158350       49.99429300    0.00000000
                                                     2       17.4297470      281.02531700    0.00000000
                                                     2        9.0054840       61.57332600    0.00000000
                                      P - G
                                                     2       15.3554660       67.44284100 -134.88568300
                                                     2       14.9718330      134.88113700  134.88113700
                                                     2        8.9601640       14.67505100  -29.35010100
                                                     2        8.2590960       29.37566600   29.37566600
                                      D - G
                                                     2       15.0689080       35.43952900  -35.43952900
                                                     2       14.5553220       53.17605700   35.45070400
                                                     2        6.7186470        9.06719500   -9.06719500
                                                     2        6.4563930       13.20693700    8.80462400
                                                     2        1.1917790        0.08933500   -0.08933500
                                                     2        1.2911570        0.05238000    0.03492000
                                      F - G
                                                     2       19.4586090      -21.84204000   14.56136000
                                                     2       19.3492600      -28.46819100  -14.23409500
                                                     2        4.8237670       -0.24371300    0.16247500
                                                     2        4.8843150       -0.32080400   -0.16040200
   48          1
                                   No pseudopotential on this center.
   49          6
                                   No pseudopotential on this center.
   50          6
                                   No pseudopotential on this center.
   51          6
                                   No pseudopotential on this center.
   52          6
                                   No pseudopotential on this center.
   53          6
                                   No pseudopotential on this center.
   54          6
                                   No pseudopotential on this center.
   55          1
                                   No pseudopotential on this center.
   56          1
                                   No pseudopotential on this center.
   57          6
                                   No pseudopotential on this center.
   58          6
                                   No pseudopotential on this center.
   59          1
                                   No pseudopotential on this center.
   60          1
                                   No pseudopotential on this center.
   61          6
                                   No pseudopotential on this center.
   62          6
                                   No pseudopotential on this center.
   63          1
                                   No pseudopotential on this center.
   64          6
                                   No pseudopotential on this center.
   65          6
                                   No pseudopotential on this center.
   66          6
                                   No pseudopotential on this center.
   67          6
                                   No pseudopotential on this center.
   68          6
                                   No pseudopotential on this center.
   69          6
                                   No pseudopotential on this center.
   70          6
                                   No pseudopotential on this center.
   71          6
                                   No pseudopotential on this center.
   72          6
                                   No pseudopotential on this center.
   73          1
                                   No pseudopotential on this center.
   74          1
                                   No pseudopotential on this center.
   75          6
                                   No pseudopotential on this center.
   76          1
                                   No pseudopotential on this center.
   77          1
                                   No pseudopotential on this center.
   78          1
                                   No pseudopotential on this center.
   79         16
                                   No pseudopotential on this center.
   80          8
                                   No pseudopotential on this center.
   81          8
                                   No pseudopotential on this center.
   82         16
                                   No pseudopotential on this center.
   83          8
                                   No pseudopotential on this center.
   84          8
                                   No pseudopotential on this center.
   85          7
                                   No pseudopotential on this center.
   86          6
                                   No pseudopotential on this center.
   87          6
                                   No pseudopotential on this center.
   88          6
                                   No pseudopotential on this center.
   89          6
                                   No pseudopotential on this center.
   90          6
                                   No pseudopotential on this center.
   91          6
                                   No pseudopotential on this center.
   92          6
                                   No pseudopotential on this center.
   93          6
                                   No pseudopotential on this center.
   94          6
                                   No pseudopotential on this center.
   95          1
                                   No pseudopotential on this center.
   96          6
                                   No pseudopotential on this center.
   97          1
                                   No pseudopotential on this center.
   98          1
                                   No pseudopotential on this center.
   99          1
                                   No pseudopotential on this center.
  100          6
                                   No pseudopotential on this center.
  101          6
                                   No pseudopotential on this center.
  102          6
                                   No pseudopotential on this center.
  103          6
                                   No pseudopotential on this center.
  104          6
                                   No pseudopotential on this center.
  105          1
                                   No pseudopotential on this center.
  106          6
                                   No pseudopotential on this center.
  107          1
                                   No pseudopotential on this center.
  108          1
                                   No pseudopotential on this center.
  109          1
                                   No pseudopotential on this center.
  110          6
                                   No pseudopotential on this center.
  111          9
                                   No pseudopotential on this center.
  112          9
                                   No pseudopotential on this center.
  113          9
                                   No pseudopotential on this center.
  114          6
                                   No pseudopotential on this center.
  115          9
                                   No pseudopotential on this center.
  116          9
                                   No pseudopotential on this center.
  117          9
                                   No pseudopotential on this center.
 ======================================================================================================
 Ernie: Thresh=  0.10000D-02 Tol=  0.10000D-05 Strict=F.
  1369 basis functions,  2395 primitive gaussians,  1463 cartesian basis functions
   290 alpha electrons      290 beta electrons
       nuclear repulsion energy     15395.8789784982 Hartrees.
 IExCor= 4336 DFT=T Ex+Corr=M062X ExCW=0 ScaHFX=  0.540000
 ScaDFX=  1.000000  1.000000  1.000000  1.000000 ScalE2=  1.000000  1.000000
 IRadAn=      5 IRanWt=     -1 IRanGd=            0 ICorTp=0 IEmpDi=131
 NAtoms=  117 NActive=  117 NUniq=  117 SFac= 1.00D+00 NAtFMM=   60 NAOKFM=T Big=T
 Integral buffers will be    131072 words long.
 Raffenetti 2 integral format.
 Two-electron integral symmetry is turned off.
 R6Disp:  Grimme-D3 Dispersion energy=       -0.0189495987 Hartrees.
 Nuclear repulsion after empirical dispersion term =    15395.8600288995 Hartrees.
 Force inversion solution in PCM.
 ------------------------------------------------------------------------------
 Polarizable Continuum Model (PCM)
 =================================
 Model                : PCM.
 Atomic radii         : SMD-Coulomb.
 Polarization charges : Total charges.
 Charge compensation  : None.
 Solution method      : Matrix inversion.
 Cavity type          : VdW (van der Waals Surface) (Alpha=1.000).
 Cavity algorithm     : GePol (No added spheres)
                        Default sphere list used, NSphG=  117.
                        Lebedev-Laikov grids with approx.  5.0 points / Ang**2.
                        Smoothing algorithm: York/Karplus (Gamma=1.0000).
                        Polarization charges: spherical gaussians, with
                                              point-specific exponents (IZeta= 3).
                        Self-potential: point-specific (ISelfS= 7).
                        Self-field    : sphere-specific E.n sum rule (ISelfD= 2).
 1st derivatives      : Analytical E(r).r(x)/FMM algorithm (CHGder, D1EAlg=3).
                        Cavity 1st derivative terms included.
 2nd derivatives      : Analytical E(r).r(xy)/FMM algorithm (CHGder, D2EAlg=3).
                        Cavity 2nd derivative terms included.
 Solvent              : PropylEthanoate, Eps=   5.520500 Eps(inf)=   1.916010
 ------------------------------------------------------------------------------
 GePol: Number of generator spheres                  =     117
 GePol: Total number of spheres                      =     117
 GePol: Number of exposed spheres                    =     117 (100.00%)
 GePol: Number of points                             =    8461
 GePol: Average weight of points                     =       0.11
 GePol: Minimum weight of points                     =   0.24D-11
 GePol: Maximum weight of points                     =    0.21501
 GePol: Number of points with low weight             =     560
 GePol: Fraction of low-weight points (<1% of avg)   =       6.62%
 GePol: Cavity surface area                          =    950.956 Ang**2
 GePol: Cavity volume                                =   1073.973 Ang**3
 ------------------------------------------------------------------------------
 Atomic radii for non-electrostatic terms: SMD-CDS.
 ------------------------------------------------------------------------------
 PCM non-electrostatic energy =        -0.0217344335 Hartrees.
 Nuclear repulsion after PCM non-electrostatic terms =    15395.8382944660 Hartrees.
 Leave Link  301 at Tue Jun 11 17:54:39 2024, MaxMem=  8321499136 cpu:               5.4 elap:               0.2
 (Enter /opt/packages/gaussian/g16RevC.01/g16/l302.exe)
 NPDir=0 NMtPBC=     1 NCelOv=     1 NCel=       1 NClECP=     1 NCelD=      1
         NCelK=      1 NCelE2=     1 NClLst=     1 CellRange=     0.0.
 One-electron integrals computed using PRISM.
   1 Symmetry operations used in ECPInt.
 ECPInt:  NShTT=  185745 NPrTT=  697989 LenC2=  125798 LenP2D=  278695.
 LDataN:  DoStor=T MaxTD1= 7 Len=  274
 NBasis=  1369 RedAO= T EigKep=  1.57D-04  NBF=  1369
 NBsUse=  1369 1.00D-06 EigRej= -1.00D+00 NBFU=  1369
 Precomputing XC quadrature grid using
 IXCGrd= 4 IRadAn=           5 IRanWt=          -1 IRanGd=           0 AccXCQ= 0.00D+00.
 Defaulting to unpruned grid for atomic number  53.
 Generated NRdTot=       0 NPtTot=           0 NUsed=           0 NTot=          32
 NSgBfM=  1276  1265  1269  1275  1276 MxSgAt=   117 MxSgA2=   117.
 Leave Link  302 at Tue Jun 11 17:54:42 2024, MaxMem=  8321499136 cpu:             117.8 elap:               3.7
 (Enter /opt/packages/gaussian/g16RevC.01/g16/l303.exe)
 DipDrv:  MaxL=1.
 Leave Link  303 at Tue Jun 11 17:54:43 2024, MaxMem=  8321499136 cpu:               8.5 elap:               0.4
 (Enter /opt/packages/gaussian/g16RevC.01/g16/l401.exe)
 ExpMin= 7.49D-02 ExpMax= 6.07D+04 ExpMxC= 2.07D+03 IAcc=3 IRadAn=         5 AccDes= 0.00D+00
 Harris functional with IExCor= 1009 and IRadAn=       5 diagonalized for initial guess.
 HarFok:  IExCor= 1009 AccDes= 0.00D+00 IRadAn=         5 IDoV= 1 UseB2=F ITyADJ=14
 ICtDFT=  3500011 ScaDFX=  1.000000  1.000000  1.000000  1.000000
 Defaulting to unpruned grid for atomic number  53.
 FoFCou: FMM=F IPFlag=           0 FMFlag=      100000 FMFlg1=        2001
         NFxFlg=           0 DoJE=T BraDBF=F KetDBF=T FulRan=T
         wScrn=  0.000000 ICntrl=       500 IOpCl=  0 I1Cent=   200000004 NGrid=           0
         NMat0=    1 NMatS0=      1 NMatT0=    0 NMatD0=    1 NMtDS0=    0 NMtDT0=    0
 Symmetry not used in FoFCou.
 Harris En= -4637.17741375302    
 JPrj=0 DoOrth=F DoCkMO=F.
 Leave Link  401 at Tue Jun 11 17:54:50 2024, MaxMem=  8321499136 cpu:             210.9 elap:               6.7
 (Enter /opt/packages/gaussian/g16RevC.01/g16/l502.exe)
 Two-electron integral symmetry not used.
 Closed shell SCF:
 Using DIIS extrapolation, IDIIS=  1040.
 NGot=  8321499136 LenX=  8317157783 LenY=  8315015951
 Requested convergence on RMS density matrix=1.00D-08 within 128 cycles.
 Requested convergence on MAX density matrix=1.00D-06.
 Requested convergence on             energy=1.00D-06.
 No special actions if energy rises.
 Fock matrices will be formed incrementally for  20 cycles.

 Cycle   1  Pass 1  IDiag  1:
 FoFJK:  IHMeth= 1 ICntrl=       0 DoSepK=F KAlg= 0 I1Cent=           0 FoldK=F
 IRaf= 720000000 NMat=       1 IRICut=       1 DoRegI=T DoRafI=F ISym2E= 0 IDoP0=0 IntGTp=1.
 FoFCou: FMM=T IPFlag=           0 FMFlag=      100000 FMFlg1=        2001
         NFxFlg=           0 DoJE=F BraDBF=F KetDBF=F FulRan=T
         wScrn=  0.000000 ICntrl=         0 IOpCl=  0 I1Cent=           0 NGrid=           0
         NMat0=    1 NMatS0=      1 NMatT0=    0 NMatD0=    1 NMtDS0=    0 NMtDT0=    0
 Symmetry not used in FoFCou.
 FMM levels:  10  Number of levels for PrismC:   9
 Defaulting to unpruned grid for atomic number  53.
 Defaulting to unpruned grid for atomic number  53.
 Defaulting to unpruned grid for atomic number  53.
 Defaulting to unpruned grid for atomic number  53.
 Defaulting to unpruned grid for atomic number  53.
 Defaulting to unpruned grid for atomic number  53.
 Defaulting to unpruned grid for atomic number  53.
 Defaulting to unpruned grid for atomic number  53.
 Defaulting to unpruned grid for atomic number  53.
 Defaulting to unpruned grid for atomic number  53.
 Defaulting to unpruned grid for atomic number  53.
 Defaulting to unpruned grid for atomic number  53.
 Defaulting to unpruned grid for atomic number  53.
 Defaulting to unpruned grid for atomic number  53.
 Defaulting to unpruned grid for atomic number  53.
 Defaulting to unpruned grid for atomic number  53.
 Defaulting to unpruned grid for atomic number  53.
 Defaulting to unpruned grid for atomic number  53.
 Defaulting to unpruned grid for atomic number  53.
 Defaulting to unpruned grid for atomic number  53.
 Defaulting to unpruned grid for atomic number  53.
 Defaulting to unpruned grid for atomic number  53.
 Defaulting to unpruned grid for atomic number  53.
 Defaulting to unpruned grid for atomic number  53.
 Defaulting to unpruned grid for atomic number  53.
 Defaulting to unpruned grid for atomic number  53.
 Defaulting to unpruned grid for atomic number  53.
 Defaulting to unpruned grid for atomic number  53.
 Defaulting to unpruned grid for atomic number  53.
 Defaulting to unpruned grid for atomic number  53.
 Defaulting to unpruned grid for atomic number  53.
 Defaulting to unpruned grid for atomic number  53.
 Inv3:  Mode=1 IEnd=   214765563.
 Iteration    1 A*A^-1 deviation from unit magnitude is 3.77D-15 for   3556.
 Iteration    1 A*A^-1 deviation from orthogonality  is 2.43D-15 for   5993     20.
 Iteration    1 A^-1*A deviation from unit magnitude is 3.77D-15 for   3556.
 Iteration    1 A^-1*A deviation from orthogonality  is 1.66D-14 for   6053   6037.
 E= -4637.65636345216    
 DIIS: error= 2.07D-02 at cycle   1 NSaved=   1.
 NSaved= 1 IEnMin= 1 EnMin= -4637.65636345216     IErMin= 1 ErrMin= 2.07D-02
 ErrMax= 2.07D-02  0.00D+00 EMaxC= 1.00D-01 BMatC= 1.76D+00 BMatP= 1.76D+00
 IDIUse=3 WtCom= 7.93D-01 WtEn= 2.07D-01
 Coeff-Com:  0.100D+01
 Coeff-En:   0.100D+01
 Coeff:      0.100D+01
 Gap=     0.351 Goal=   None    Shift=    0.000
 GapD=    0.351 DampG=1.000 DampE=0.500 DampFc=0.5000 IDamp=-1.
 Damping current iteration by 5.00D-01
 RMSDP=2.19D-03 MaxDP=2.49D-01              OVMax= 1.50D-01

 Cycle   2  Pass 1  IDiag  1:
 RMSU=  1.06D-03    CP:  9.76D-01
 E= -4638.34214601534     Delta-E=       -0.685782563181 Rises=F Damp=T
 DIIS: error= 8.55D-03 at cycle   2 NSaved=   2.
 NSaved= 2 IEnMin= 2 EnMin= -4638.34214601534     IErMin= 2 ErrMin= 8.55D-03
 ErrMax= 8.55D-03  0.00D+00 EMaxC= 1.00D-01 BMatC= 1.63D-01 BMatP= 1.76D+00
 IDIUse=3 WtCom= 9.14D-01 WtEn= 8.55D-02
 Coeff-Com: -0.368D-02 0.100D+01
 Coeff-En:   0.000D+00 0.100D+01
 Coeff:     -0.337D-02 0.100D+01
 Gap=     0.198 Goal=   None    Shift=    0.000
 RMSDP=8.24D-04 MaxDP=8.08D-02 DE=-6.86D-01 OVMax= 1.31D-01

 Cycle   3  Pass 1  IDiag  1:
 RMSU=  7.79D-04    CP:  9.58D-01  1.16D+00
 E= -4639.03251053899     Delta-E=       -0.690364523651 Rises=F Damp=F
 DIIS: error= 7.08D-03 at cycle   3 NSaved=   3.
 NSaved= 3 IEnMin= 3 EnMin= -4639.03251053899     IErMin= 3 ErrMin= 7.08D-03
 ErrMax= 7.08D-03  0.00D+00 EMaxC= 1.00D-01 BMatC= 1.36D-01 BMatP= 1.63D-01
 IDIUse=3 WtCom= 9.29D-01 WtEn= 7.08D-02
 Coeff-Com: -0.913D-01 0.516D+00 0.576D+00
 Coeff-En:   0.000D+00 0.000D+00 0.100D+01
 Coeff:     -0.848D-01 0.479D+00 0.606D+00
 Gap=     0.208 Goal=   None    Shift=    0.000
 RMSDP=4.18D-04 MaxDP=3.90D-02 DE=-6.90D-01 OVMax= 5.58D-02

 Cycle   4  Pass 1  IDiag  1:
 RMSU=  2.69D-04    CP:  9.60D-01  1.24D+00  6.03D-01
 E= -4639.13419433694     Delta-E=       -0.101683797950 Rises=F Damp=F
 DIIS: error= 1.80D-03 at cycle   4 NSaved=   4.
 NSaved= 4 IEnMin= 4 EnMin= -4639.13419433694     IErMin= 4 ErrMin= 1.80D-03
 ErrMax= 1.80D-03  0.00D+00 EMaxC= 1.00D-01 BMatC= 1.69D-02 BMatP= 1.36D-01
 IDIUse=3 WtCom= 9.82D-01 WtEn= 1.80D-02
 Coeff-Com: -0.372D-01 0.117D+00 0.305D+00 0.615D+00
 Coeff-En:   0.000D+00 0.000D+00 0.790D-01 0.921D+00
 Coeff:     -0.365D-01 0.115D+00 0.301D+00 0.620D+00
 Gap=     0.202 Goal=   None    Shift=    0.000
 RMSDP=1.34D-04 MaxDP=2.01D-02 DE=-1.02D-01 OVMax= 2.01D-02

 Cycle   5  Pass 1  IDiag  1:
 RMSU=  6.76D-05    CP:  9.60D-01  1.23D+00  7.02D-01  6.81D-01
 E= -4639.14837379375     Delta-E=       -0.014179456803 Rises=F Damp=F
 DIIS: error= 5.35D-04 at cycle   5 NSaved=   5.
 NSaved= 5 IEnMin= 5 EnMin= -4639.14837379375     IErMin= 5 ErrMin= 5.35D-04
 ErrMax= 5.35D-04  0.00D+00 EMaxC= 1.00D-01 BMatC= 1.12D-03 BMatP= 1.69D-02
 IDIUse=3 WtCom= 9.95D-01 WtEn= 5.35D-03
 Coeff-Com: -0.110D-01 0.187D-01 0.966D-01 0.295D+00 0.601D+00
 Coeff-En:   0.000D+00 0.000D+00 0.000D+00 0.000D+00 0.100D+01
 Coeff:     -0.109D-01 0.186D-01 0.960D-01 0.293D+00 0.603D+00
 Gap=     0.201 Goal=   None    Shift=    0.000
 RMSDP=3.55D-05 MaxDP=4.49D-03 DE=-1.42D-02 OVMax= 7.76D-03

 Cycle   6  Pass 1  IDiag  1:
 RMSU=  2.36D-05    CP:  9.60D-01  1.23D+00  7.00D-01  7.27D-01  6.82D-01
 E= -4639.14938104099     Delta-E=       -0.001007247249 Rises=F Damp=F
 DIIS: error= 1.88D-04 at cycle   6 NSaved=   6.
 NSaved= 6 IEnMin= 6 EnMin= -4639.14938104099     IErMin= 6 ErrMin= 1.88D-04
 ErrMax= 1.88D-04  0.00D+00 EMaxC= 1.00D-01 BMatC= 9.44D-05 BMatP= 1.12D-03
 IDIUse=3 WtCom= 9.98D-01 WtEn= 1.88D-03
 Coeff-Com: -0.233D-02 0.467D-03 0.190D-01 0.801D-01 0.281D+00 0.622D+00
 Coeff-En:   0.000D+00 0.000D+00 0.000D+00 0.000D+00 0.000D+00 0.100D+01
 Coeff:     -0.233D-02 0.466D-03 0.189D-01 0.799D-01 0.280D+00 0.623D+00
 Gap=     0.201 Goal=   None    Shift=    0.000
 RMSDP=1.09D-05 MaxDP=1.21D-03 DE=-1.01D-03 OVMax= 1.72D-03

 Cycle   7  Pass 1  IDiag  1:
 RMSU=  8.27D-06    CP:  9.60D-01  1.24D+00  7.02D-01  7.30D-01  7.42D-01
                    CP:  7.66D-01
 E= -4639.14946782384     Delta-E=       -0.000086782846 Rises=F Damp=F
 DIIS: error= 8.70D-05 at cycle   7 NSaved=   7.
 NSaved= 7 IEnMin= 7 EnMin= -4639.14946782384     IErMin= 7 ErrMin= 8.70D-05
 ErrMax= 8.70D-05  0.00D+00 EMaxC= 1.00D-01 BMatC= 1.31D-05 BMatP= 9.44D-05
 IDIUse=1 WtCom= 1.00D+00 WtEn= 0.00D+00
 Coeff-Com:  0.116D-03-0.199D-02-0.308D-02 0.191D-02 0.669D-01 0.310D+00
 Coeff-Com:  0.626D+00
 Coeff:      0.116D-03-0.199D-02-0.308D-02 0.191D-02 0.669D-01 0.310D+00
 Coeff:      0.626D+00
 Gap=     0.201 Goal=   None    Shift=    0.000
 RMSDP=3.92D-06 MaxDP=5.27D-04 DE=-8.68D-05 OVMax= 8.22D-04

 Cycle   8  Pass 1  IDiag  1:
 RMSU=  3.32D-06    CP:  9.60D-01  1.24D+00  7.03D-01  7.33D-01  7.53D-01
                    CP:  8.29D-01  8.77D-01
 E= -4639.14948098851     Delta-E=       -0.000013164668 Rises=F Damp=F
 DIIS: error= 2.92D-05 at cycle   8 NSaved=   8.
 NSaved= 8 IEnMin= 8 EnMin= -4639.14948098851     IErMin= 8 ErrMin= 2.92D-05
 ErrMax= 2.92D-05  0.00D+00 EMaxC= 1.00D-01 BMatC= 1.48D-06 BMatP= 1.31D-05
 IDIUse=1 WtCom= 1.00D+00 WtEn= 0.00D+00
 Coeff-Com:  0.372D-03-0.921D-03-0.462D-02-0.119D-01-0.110D-01 0.465D-01
 Coeff-Com:  0.277D+00 0.704D+00
 Coeff:      0.372D-03-0.921D-03-0.462D-02-0.119D-01-0.110D-01 0.465D-01
 Coeff:      0.277D+00 0.704D+00
 Gap=     0.201 Goal=   None    Shift=    0.000
 RMSDP=1.66D-06 MaxDP=1.81D-04 DE=-1.32D-05 OVMax= 3.45D-04

 Cycle   9  Pass 1  IDiag  1:
 RMSU=  1.22D-06    CP:  9.60D-01  1.24D+00  7.03D-01  7.34D-01  7.58D-01
                    CP:  8.54D-01  9.56D-01  8.60D-01
 E= -4639.14948273480     Delta-E=       -0.000001746293 Rises=F Damp=F
 DIIS: error= 1.27D-05 at cycle   9 NSaved=   9.
 NSaved= 9 IEnMin= 9 EnMin= -4639.14948273480     IErMin= 9 ErrMin= 1.27D-05
 ErrMax= 1.27D-05  0.00D+00 EMaxC= 1.00D-01 BMatC= 2.89D-07 BMatP= 1.48D-06
 IDIUse=1 WtCom= 1.00D+00 WtEn= 0.00D+00
 Coeff-Com:  0.160D-03-0.183D-03-0.203D-02-0.652D-02-0.140D-01-0.162D-01
 Coeff-Com:  0.592D-01 0.361D+00 0.618D+00
 Coeff:      0.160D-03-0.183D-03-0.203D-02-0.652D-02-0.140D-01-0.162D-01
 Coeff:      0.592D-01 0.361D+00 0.618D+00
 Gap=     0.201 Goal=   None    Shift=    0.000
 RMSDP=6.81D-07 MaxDP=6.08D-05 DE=-1.75D-06 OVMax= 1.33D-04

 Cycle  10  Pass 1  IDiag  1:
 RMSU=  5.06D-07    CP:  9.60D-01  1.24D+00  7.03D-01  7.34D-01  7.60D-01
                    CP:  8.59D-01  9.79D-01  9.54D-01  8.56D-01
 E= -4639.14948308301     Delta-E=       -0.000000348204 Rises=F Damp=F
 DIIS: error= 2.59D-06 at cycle  10 NSaved=  10.
 NSaved=10 IEnMin=10 EnMin= -4639.14948308301     IErMin=10 ErrMin= 2.59D-06
 ErrMax= 2.59D-06  0.00D+00 EMaxC= 1.00D-01 BMatC= 2.62D-08 BMatP= 2.89D-07
 IDIUse=1 WtCom= 1.00D+00 WtEn= 0.00D+00
 Coeff-Com:  0.190D-04 0.427D-04-0.272D-03-0.132D-02-0.464D-02-0.139D-01
 Coeff-Com: -0.119D-01 0.570D-01 0.249D+00 0.726D+00
 Coeff:      0.190D-04 0.427D-04-0.272D-03-0.132D-02-0.464D-02-0.139D-01
 Coeff:     -0.119D-01 0.570D-01 0.249D+00 0.726D+00
 Gap=     0.201 Goal=   None    Shift=    0.000
 RMSDP=2.87D-07 MaxDP=1.81D-05 DE=-3.48D-07 OVMax= 9.98D-05

 Cycle  11  Pass 1  IDiag  1:
 RMSU=  1.91D-07    CP:  9.60D-01  1.24D+00  7.03D-01  7.34D-01  7.60D-01
                    CP:  8.61D-01  9.91D-01  9.83D-01  9.79D-01  9.54D-01
 E= -4639.14948312624     Delta-E=       -0.000000043237 Rises=F Damp=F
 DIIS: error= 1.09D-06 at cycle  11 NSaved=  11.
 NSaved=11 IEnMin=11 EnMin= -4639.14948312624     IErMin=11 ErrMin= 1.09D-06
 ErrMax= 1.09D-06  0.00D+00 EMaxC= 1.00D-01 BMatC= 5.64D-09 BMatP= 2.62D-08
 IDIUse=1 WtCom= 1.00D+00 WtEn= 0.00D+00
 Coeff-Com: -0.223D-04 0.526D-04 0.273D-03 0.684D-03 0.747D-03-0.313D-02
 Coeff-Com: -0.156D-01-0.444D-01-0.153D-01 0.331D+00 0.746D+00
 Coeff:     -0.223D-04 0.526D-04 0.273D-03 0.684D-03 0.747D-03-0.313D-02
 Coeff:     -0.156D-01-0.444D-01-0.153D-01 0.331D+00 0.746D+00
 Gap=     0.201 Goal=   None    Shift=    0.000
 RMSDP=1.38D-07 MaxDP=1.02D-05 DE=-4.32D-08 OVMax= 4.53D-05

 Cycle  12  Pass 1  IDiag  1:
 RMSU=  8.84D-08    CP:  9.60D-01  1.24D+00  7.03D-01  7.34D-01  7.60D-01
                    CP:  8.61D-01  9.95D-01  9.94D-01  1.01D+00  1.12D+00
                    CP:  9.32D-01
 E= -4639.14948313614     Delta-E=       -0.000000009897 Rises=F Damp=F
 DIIS: error= 4.44D-07 at cycle  12 NSaved=  12.
 NSaved=12 IEnMin=12 EnMin= -4639.14948313614     IErMin=12 ErrMin= 4.44D-07
 ErrMax= 4.44D-07  0.00D+00 EMaxC= 1.00D-01 BMatC= 9.53D-10 BMatP= 5.64D-09
 IDIUse=1 WtCom= 1.00D+00 WtEn= 0.00D+00
 Coeff-Com: -0.125D-04 0.175D-04 0.166D-03 0.505D-03 0.104D-02 0.378D-03
 Coeff-Com: -0.507D-02-0.283D-01-0.447D-01 0.501D-01 0.351D+00 0.675D+00
 Coeff:     -0.125D-04 0.175D-04 0.166D-03 0.505D-03 0.104D-02 0.378D-03
 Coeff:     -0.507D-02-0.283D-01-0.447D-01 0.501D-01 0.351D+00 0.675D+00
 Gap=     0.201 Goal=   None    Shift=    0.000
 RMSDP=5.39D-08 MaxDP=3.58D-06 DE=-9.90D-09 OVMax= 2.32D-05

 Cycle  13  Pass 1  IDiag  1:
 RMSU=  3.41D-08    CP:  9.60D-01  1.24D+00  7.03D-01  7.34D-01  7.60D-01
                    CP:  8.61D-01  9.95D-01  9.98D-01  1.03D+00  1.15D+00
                    CP:  1.07D+00  9.16D-01
 E= -4639.14948313769     Delta-E=       -0.000000001555 Rises=F Damp=F
 DIIS: error= 1.40D-07 at cycle  13 NSaved=  13.
 NSaved=13 IEnMin=13 EnMin= -4639.14948313769     IErMin=13 ErrMin= 1.40D-07
 ErrMax= 1.40D-07  0.00D+00 EMaxC= 1.00D-01 BMatC= 1.38D-10 BMatP= 9.53D-10
 IDIUse=1 WtCom= 1.00D+00 WtEn= 0.00D+00
 Coeff-Com: -0.137D-05-0.153D-05 0.263D-04 0.991D-04 0.329D-03 0.535D-03
 Coeff-Com:  0.506D-03-0.464D-02-0.164D-01-0.298D-01 0.190D-01 0.280D+00
 Coeff-Com:  0.750D+00
 Coeff:     -0.137D-05-0.153D-05 0.263D-04 0.991D-04 0.329D-03 0.535D-03
 Coeff:      0.506D-03-0.464D-02-0.164D-01-0.298D-01 0.190D-01 0.280D+00
 Coeff:      0.750D+00
 Gap=     0.201 Goal=   None    Shift=    0.000
 RMSDP=2.30D-08 MaxDP=1.72D-06 DE=-1.56D-09 OVMax= 8.66D-06

 Cycle  14  Pass 1  IDiag  1:
 RMSU=  1.23D-08    CP:  9.60D-01  1.24D+00  7.03D-01  7.34D-01  7.61D-01
                    CP:  8.61D-01  9.96D-01  9.98D-01  1.03D+00  1.17D+00
                    CP:  1.12D+00  1.05D+00  9.76D-01
 E= -4639.14948313821     Delta-E=       -0.000000000511 Rises=F Damp=F
 DIIS: error= 8.70D-08 at cycle  14 NSaved=  14.
 NSaved=14 IEnMin=14 EnMin= -4639.14948313821     IErMin=14 ErrMin= 8.70D-08
 ErrMax= 8.70D-08  0.00D+00 EMaxC= 1.00D-01 BMatC= 2.44D-11 BMatP= 1.38D-10
 IDIUse=1 WtCom= 1.00D+00 WtEn= 0.00D+00
 Coeff-Com:  0.170D-05-0.365D-05-0.200D-04-0.542D-04-0.475D-04 0.126D-03
 Coeff-Com:  0.125D-02 0.330D-02 0.111D-02-0.209D-01-0.611D-01-0.113D-02
 Coeff-Com:  0.324D+00 0.754D+00
 Coeff:      0.170D-05-0.365D-05-0.200D-04-0.542D-04-0.475D-04 0.126D-03
 Coeff:      0.125D-02 0.330D-02 0.111D-02-0.209D-01-0.611D-01-0.113D-02
 Coeff:      0.324D+00 0.754D+00
 Gap=     0.201 Goal=   None    Shift=    0.000
 RMSDP=9.88D-09 MaxDP=5.97D-07 DE=-5.11D-10 OVMax= 4.19D-06

 Error on total polarization charges =  0.06479
 SCF Done:  E(RM062X) =  -4639.14948314     A.U. after   14 cycles
            NFock= 14  Conv=0.99D-08     -V/T= 2.0492
 KE= 4.421419802772D+03 PE=-4.158885786595D+04 EE= 1.713245028557D+04
 SMD-CDS (non-electrostatic) energy       (kcal/mol) =     -13.64
 (included in total energy above)
 Leave Link  502 at Tue Jun 11 18:04:37 2024, MaxMem=  8321499136 cpu:           18380.9 elap:             587.6
 (Enter /opt/packages/gaussian/g16RevC.01/g16/l508.exe)
 QCSCF skips out because SCF is already converged.
 Leave Link  508 at Tue Jun 11 18:04:38 2024, MaxMem=  8321499136 cpu:               0.1 elap:               0.0
 (Enter /opt/packages/gaussian/g16RevC.01/g16/l801.exe)
 DoSCS=F DFT=T ScalE2(SS,OS)=  1.000000  1.000000
 Range of M.O.s used for correlation:     1  1369
 NBasis=  1369 NAE=   290 NBE=   290 NFC=     0 NFV=     0
 NROrb=   1369 NOA=   290 NOB=   290 NVA=  1079 NVB=  1079
 Leave Link  801 at Tue Jun 11 18:04:38 2024, MaxMem=  8321499136 cpu:               1.0 elap:               0.1
 (Enter /opt/packages/gaussian/g16RevC.01/g16/l1101.exe)
 Using compressed storage, NAtomX=   117.
 Will process    118 centers per pass.
 PrsmSu:  requested number of processors reduced to:  21 ShMem   1 Linda.
   1 Symmetry operations used in ECPInt.
 ECPInt:  NShTT=  185745 NPrTT=  697989 LenC2=  125798 LenP2D=  278695.
 LDataN:  DoStor=T MaxTD1= 8 Len=  415
 Number of processors reduced to   4 by ecpmxn.
 R6Disp: Adding Grimme-D3 dispersion energy 1st derivatives to the gradient.
 Leave Link 1101 at Tue Jun 11 18:04:54 2024, MaxMem=  8321499136 cpu:             380.5 elap:              16.0
 (Enter /opt/packages/gaussian/g16RevC.01/g16/l1102.exe)
 Symmetrizing basis deriv contribution to polar:
 IMax=3 JMax=2 DiffMx= 0.00D+00
 Leave Link 1102 at Tue Jun 11 18:04:55 2024, MaxMem=  8321499136 cpu:               7.2 elap:               0.3
 (Enter /opt/packages/gaussian/g16RevC.01/g16/l1110.exe)
 Forming Gx(P) for the SCF density, NAtomX=   117.
 Integral derivatives from FoFJK, PRISM(SPDF).
 Do as many integral derivatives as possible in FoFJK.
 G2DrvN: MDV=    8321486949.
 G2DrvN: will do    59 centers at a time, making    2 passes.
 G2DrvN:  IPasSy=1 do centers    0 through   58.
 Calling FoFCou, ICntrl=  3107 FMM=T I1Cent=   0 AccDes= 0.00D+00.
 FoFJK:  IHMeth= 1 ICntrl=    3107 DoSepK=F KAlg= 0 I1Cent=           0 FoldK=F
 IRaf=         0 NMat=       1 IRICut=       1 DoRegI=T DoRafI=F ISym2E= 0 IDoP0=0 IntGTp=1.
 FoFCou: FMM=T IPFlag=           0 FMFlag=      100000 FMFlg1=        2001
         NFxFlg=           0 DoJE=F BraDBF=F KetDBF=F FulRan=T
         wScrn=  0.000000 ICntrl=      3107 IOpCl=  0 I1Cent=           0 NGrid=           0
         NMat0=    1 NMatS0=      1 NMatT0=    0 NMatD0=    1 NMtDS0=    0 NMtDT0=    0
 Symmetry not used in FoFCou.
 FMM levels:  10  Number of levels for PrismC:   9
 Defaulting to unpruned grid for atomic number  53.
 Defaulting to unpruned grid for atomic number  53.
 Defaulting to unpruned grid for atomic number  53.
 Defaulting to unpruned grid for atomic number  53.
 Defaulting to unpruned grid for atomic number  53.
 Defaulting to unpruned grid for atomic number  53.
 Defaulting to unpruned grid for atomic number  53.
 Defaulting to unpruned grid for atomic number  53.
 Defaulting to unpruned grid for atomic number  53.
 Defaulting to unpruned grid for atomic number  53.
 Defaulting to unpruned grid for atomic number  53.
 Defaulting to unpruned grid for atomic number  53.
 Defaulting to unpruned grid for atomic number  53.
 Defaulting to unpruned grid for atomic number  53.
 Defaulting to unpruned grid for atomic number  53.
 Defaulting to unpruned grid for atomic number  53.
 Defaulting to unpruned grid for atomic number  53.
 Defaulting to unpruned grid for atomic number  53.
 Defaulting to unpruned grid for atomic number  53.
 Defaulting to unpruned grid for atomic number  53.
 Defaulting to unpruned grid for atomic number  53.
 Defaulting to unpruned grid for atomic number  53.
 Defaulting to unpruned grid for atomic number  53.
 Defaulting to unpruned grid for atomic number  53.
 Defaulting to unpruned grid for atomic number  53.
 Defaulting to unpruned grid for atomic number  53.
 Defaulting to unpruned grid for atomic number  53.
 Defaulting to unpruned grid for atomic number  53.
 Defaulting to unpruned grid for atomic number  53.
 Defaulting to unpruned grid for atomic number  53.
 Defaulting to unpruned grid for atomic number  53.
 Defaulting to unpruned grid for atomic number  53.
 G2DrvN:  IPasSy=1 do centers   59 through  117.
 Calling FoFCou, ICntrl=  3107 FMM=T I1Cent=   0 AccDes= 0.00D+00.
 NEqPCM:  Using equilibrium solvation (IEInf=0, Eps=   5.5205, EpsInf=   1.9160)
 G2PCM: DoFxE=T DoFxN=T DoGrad=T DoDP/DQ/DG/TGxP=FFFF NFrqRd=   0 IEInf=0 SqF1=F DoCFld=F IF1Alg=4.
 GePol: Maximum number of non-zero 1st derivatives   =     303
 End of G2Drv F.D. properties file   721 does not exist.
 End of G2Drv F.D. properties file   722 does not exist.
 End of G2Drv F.D. properties file   788 does not exist.
 Leave Link 1110 at Tue Jun 11 18:36:27 2024, MaxMem=  8321499136 cpu:           60216.7 elap:            1892.2
 (Enter /opt/packages/gaussian/g16RevC.01/g16/l1002.exe)
 Minotr:  Closed shell wavefunction.
          IDoAtm=11111111111111111111111111111111111111111111111111
          IDoAtm=11111111111111111111111111111111111111111111111111
          IDoAtm=11111111111111111
 NEqPCM:  Using equilibrium solvation (IEInf=0, Eps=   5.5205, EpsInf=   1.9160)
          Direct CPHF calculation.
          Differentiating once with respect to electric field.
                with respect to dipole field.
          Differentiating once with respect to nuclear coordinates.
          Requested convergence is 1.0D-08 RMS, and 1.0D-07 maximum.
          Secondary convergence is 1.0D-12 RMS, and 1.0D-12 maximum.
          NewPWx=T KeepS1=F KeepF1=F KeepIn=T MapXYZ=F SortEE=F KeepMc=T.
 Defaulting to unpruned grid for atomic number  53.
        36078 words used for storage of precomputed grid.
 Two-electron integral symmetry not used.
          MDV=    8321499136 using IRadAn=       1.
          Solving linear equations simultaneously, MaxMat=      96.
 FoF2E skips out because all densities are zero.
 CalDSu exits because no D1Ps are significant.
 FoFJK:  IHMeth= 1 ICntrl=       0 DoSepK=F KAlg= 0 I1Cent=           0 FoldK=F
 IRaf= 660000000 NMat=      96 IRICut=       1 DoRegI=T DoRafI=F ISym2E= 0 IDoP0=3 IntGTp=3.
 Defaulting to unpruned grid for atomic number  53.
 Defaulting to unpruned grid for atomic number  53.
 Defaulting to unpruned grid for atomic number  53.
 Defaulting to unpruned grid for atomic number  53.
 Defaulting to unpruned grid for atomic number  53.
 Defaulting to unpruned grid for atomic number  53.
 Defaulting to unpruned grid for atomic number  53.
 Defaulting to unpruned grid for atomic number  53.
 Defaulting to unpruned grid for atomic number  53.
 Defaulting to unpruned grid for atomic number  53.
 Defaulting to unpruned grid for atomic number  53.
 Defaulting to unpruned grid for atomic number  53.
 Defaulting to unpruned grid for atomic number  53.
 Defaulting to unpruned grid for atomic number  53.
 Defaulting to unpruned grid for atomic number  53.
 Defaulting to unpruned grid for atomic number  53.
 Defaulting to unpruned grid for atomic number  53.
 Defaulting to unpruned grid for atomic number  53.
 Defaulting to unpruned grid for atomic number  53.
 Defaulting to unpruned grid for atomic number  53.
 Defaulting to unpruned grid for atomic number  53.
 Defaulting to unpruned grid for atomic number  53.
 Defaulting to unpruned grid for atomic number  53.
 Defaulting to unpruned grid for atomic number  53.
 Defaulting to unpruned grid for atomic number  53.
 Defaulting to unpruned grid for atomic number  53.
 Defaulting to unpruned grid for atomic number  53.
 Defaulting to unpruned grid for atomic number  53.
 Defaulting to unpruned grid for atomic number  53.
 Defaulting to unpruned grid for atomic number  53.
 Defaulting to unpruned grid for atomic number  53.
 Defaulting to unpruned grid for atomic number  53.
          There are   354 degrees of freedom in the 1st order CPHF.  IDoFFX=6 NUNeed=     3.
    354 vectors produced by pass  0 Test12= 3.13D-13 1.00D-09 XBig12= 7.36D+02 8.69D+00.
 AX will form    96 AO Fock derivatives at one time.
    354 vectors produced by pass  1 Test12= 3.13D-13 1.00D-09 XBig12= 7.64D+01 8.14D-01.
    354 vectors produced by pass  2 Test12= 3.13D-13 1.00D-09 XBig12= 1.80D+00 1.28D-01.
    352 vectors produced by pass  3 Test12= 3.13D-13 1.00D-09 XBig12= 2.62D-02 1.18D-02.
    351 vectors produced by pass  4 Test12= 3.13D-13 1.00D-09 XBig12= 2.06D-04 8.53D-04.
    351 vectors produced by pass  5 Test12= 3.13D-13 1.00D-09 XBig12= 1.16D-06 5.76D-05.
    261 vectors produced by pass  6 Test12= 3.13D-13 1.00D-09 XBig12= 5.24D-09 3.88D-06.
     45 vectors produced by pass  7 Test12= 3.13D-13 1.00D-09 XBig12= 1.92D-11 2.05D-07.
      3 vectors produced by pass  8 Test12= 3.13D-13 1.00D-09 XBig12= 6.99D-14 1.18D-08.
      3 vectors produced by pass  9 Test12= 3.13D-13 1.00D-09 XBig12= 1.78D-14 3.40D-09.
      3 vectors produced by pass 10 Test12= 3.13D-13 1.00D-09 XBig12= 1.15D-14 2.74D-09.
      3 vectors produced by pass 11 Test12= 3.13D-13 1.00D-09 XBig12= 9.13D-15 2.52D-09.
      3 vectors produced by pass 12 Test12= 3.13D-13 1.00D-09 XBig12= 1.06D-14 2.72D-09.
      3 vectors produced by pass 13 Test12= 3.13D-13 1.00D-09 XBig12= 8.21D-15 3.40D-09.
      3 vectors produced by pass 14 Test12= 3.13D-13 1.00D-09 XBig12= 1.08D-14 2.39D-09.
      3 vectors produced by pass 15 Test12= 3.13D-13 1.00D-09 XBig12= 1.35D-14 3.05D-09.
      3 vectors produced by pass 16 Test12= 3.13D-13 1.00D-09 XBig12= 1.22D-14 3.18D-09.
      2 vectors produced by pass 17 Test12= 3.13D-13 1.00D-09 XBig12= 6.87D-15 2.63D-09.
 InvSVY:  IOpt=1 It=  1 EMax= 6.04D-14
 Solved reduced A of dimension  2451 with   354 vectors.
 FullF1:  Do perturbations      1 to       3.
 Isotropic polarizability for W=    0.000000     1065.24 Bohr**3.
 End of Minotr F.D. properties file   721 does not exist.
 End of Minotr F.D. properties file   722 does not exist.
 End of Minotr F.D. properties file   788 does not exist.
 Leave Link 1002 at Tue Jun 11 20:27:07 2024, MaxMem=  8321499136 cpu:          210930.6 elap:            6640.2
 (Enter /opt/packages/gaussian/g16RevC.01/g16/l601.exe)
 Copying SCF densities to generalized density rwf, IOpCl= 0 IROHF=0.
 Hyperfine terms turned off by default for NAtoms > 100.

 **********************************************************************

            Population analysis using the SCF Density.

 **********************************************************************

 Alpha  occ. eigenvalues --  -90.09058 -90.09039 -25.28741 -25.28525 -25.28310
 Alpha  occ. eigenvalues --  -25.28176 -25.27808 -25.27795 -25.26583 -19.63827
 Alpha  occ. eigenvalues --  -19.61193 -19.61180 -19.60886 -19.60871 -14.82536
 Alpha  occ. eigenvalues --  -14.77198 -14.75196 -10.81033 -10.80560 -10.66967
 Alpha  occ. eigenvalues --  -10.65100 -10.64803 -10.60781 -10.60564 -10.60222
 Alpha  occ. eigenvalues --  -10.60209 -10.60150 -10.59962 -10.59961 -10.59898
 Alpha  occ. eigenvalues --  -10.59748 -10.59701 -10.59661 -10.59569 -10.59505
 Alpha  occ. eigenvalues --  -10.58952 -10.58821 -10.58643 -10.58510 -10.58303
 Alpha  occ. eigenvalues --  -10.58146 -10.58075 -10.57839 -10.57745 -10.57729
 Alpha  occ. eigenvalues --  -10.57637 -10.57447 -10.57422 -10.57310 -10.57180
 Alpha  occ. eigenvalues --  -10.57121 -10.57120 -10.57116 -10.57070 -10.57052
 Alpha  occ. eigenvalues --  -10.56862 -10.56798 -10.56789 -10.56649 -10.56556
 Alpha  occ. eigenvalues --  -10.56512 -10.56500 -10.56468 -10.56443 -10.56413
 Alpha  occ. eigenvalues --  -10.56408 -10.56401 -10.56317 -10.56307 -10.56274
 Alpha  occ. eigenvalues --  -10.56202 -10.56188 -10.56118 -10.56092 -10.56015
 Alpha  occ. eigenvalues --  -10.55937 -10.55130  -8.41812  -8.41773  -7.10047
 Alpha  occ. eigenvalues --   -6.34015  -6.33973  -6.33924  -6.33894  -6.33877
 Alpha  occ. eigenvalues --   -6.33846  -5.09467  -5.08318  -5.08303  -2.06298
 Alpha  occ. eigenvalues --   -2.05841  -2.05819  -2.04868  -2.04866  -1.45109
 Alpha  occ. eigenvalues --   -1.44628  -1.35665  -1.35291  -1.34861  -1.34809
 Alpha  occ. eigenvalues --   -1.34359  -1.23590  -1.22052  -1.16349  -1.11263
 Alpha  occ. eigenvalues --   -1.10352  -1.10132  -1.04968  -1.00780  -0.99174
 Alpha  occ. eigenvalues --   -0.98525  -0.98159  -0.97924  -0.97858  -0.95190
 Alpha  occ. eigenvalues --   -0.94118  -0.93830  -0.93580  -0.91430  -0.90068
[...]
 .00114416,0.00104576,-0.00003383,-0.00051142,0.00006225,-0.00040661,0.
 00012465,0.00002489,-0.00004288,0.00037950,-0.00034870,0.00001115,0.00
 011888,-0.00000451,0.00027616,-0.00000981,0.00036579,-0.00002752,0.000
 06626,-0.00002496,0.00021502,0.00010200,0.00022676,0.00013049,0.000157
 63,-0.00027923,-0.00002741,-0.00010301,0.00001669,-0.00001163,0.000113
 20,-0.00004362,-0.00002573,-0.00004104,0.00002415,-0.00133873,0.001220
 51,0.00010671,-0.00010552,0.00028096,-0.00034409,0.00000958,0.00011141
 ,-0.00001588,0.00034933,0.00056785,-0.00020342,0.00000466,0.00000128,0
 .00000711,-0.00000650,0.00000203,0.00001375,-0.00000539,0.00001416,-0.
 00000620,0.00000436,-0.00000156,-0.00000314,0.00000442,-0.00000283,0.0
 0000475,-0.00000341,-0.00000260,0.00000829,-0.00000329,-0.00000735,-0.
 00000540,-0.00000219,-0.00000467,-0.00001418,-0.00000079,0.00000968,-0
 .00000012,-0.00000559,0.00000425,0.00000426,-0.00000214,-0.00000220,-0
 .00000278,-0.00000227,-0.00000254,-0.00000328,0.00000364,-0.00001632,0
 .00000151,-0.00002215,-0.00001275,0.00000663,-0.00000193,-0.00000266,-
 0.00000235,0.00001210,0.00009640,0.00009788,-0.00004127,0.00003955,0.0
 0009076,0.00001235,-0.00003874,-0.00006562,-0.00016168,0.00000113,-0.0
 0002102,-0.00010926,0.00006296,0.00003460,-0.00003241,0.00005775,0.000
 06660,0.00051649,-0.00017078,-0.00004699,0.00012139,-0.00002370,0.0000
 0325,0.00007789,0.00000124,0.00000844,0.00000079,0.00000133,-0.0000035
 3,0.00026467,0.00019448,0.00012735,-0.00003237,-0.00001069,0.00000040,
 0.00000739,0.00004328,0.00001509,-0.00000632,0.00000372,-0.00000318,0.
 00000830,0.00001255,0.00000250,0.00012139,0.00000316,-0.00012776,-0.00
 006644,-0.00000357,0.00009213,-0.00001897,-0.00002120,0.00005545,-0.00
 039412,0.00013320,-0.00049981,0.00003890,-0.00003235,0.00015777,0.0002
 2861,0.00000716,0.00018086,-0.00006093,-0.00037080,0.00025904,0.000000
 97,0.00000318,-0.00000100,-0.00000014,-0.00000143,0.00000445,0.0001924
 9,0.00026847,0.00044167,0.00086424,0.00026955,-0.00031322,-0.00356130,
 -0.00024796,-0.00096616,-0.00668959,-0.00720266,-0.03880394,-0.0001419
 5,-0.00116311,0.00049670,0.00493974,-0.00245928,-0.00081309,0.00000505
 ,-0.00047044,-0.00044144,0.00005061,-0.00012153,-0.00016868,-0.0007323
 4,-0.00182342,0.00046182,0.00036604,0.00076042,-0.00036393,0.00013352,
 0.00007078,-0.00015856,0.00006673,-0.00058138,-0.00019533,-0.00000196,
 0.00000285,-0.00000237,-0.00000040,-0.00000116,0.00000449,0.00000552,-
 0.00000172,0.00000200,-0.00000120,-0.00000034,0.00000173,-0.00000114,0
 .00000249,0.00000159,0.00000018,-0.00000066,-0.00000398,0.00000125,-0.
 00000056,0.00000155,-0.00000067,-0.00000032,-0.00000153,0.00000067,-0.
 00000180,-0.00000163,-0.00000030,-0.00000024,-0.00000146,-0.00000579,0
 .00000344,-0.00003596,0.00000009,0.00000413,0.00001046,0.00000587,-0.0
 0000556,0.00001742,-0.00000063,-0.00000128,0.00000653,-0.01579199,-0.0
 2130607,-0.27452130,0.02256172,0.03765567,-0.05858102,0.04354965,-0.01
 782863,0.41043253,0.00017207,-0.00012135,-0.00002251,-0.00006964,-0.00
 007890,0.00002072,0.00010246,-0.00005564,-0.00004824,-0.00017190,0.000
 09809,-0.00002079,0.00029867,-0.00027101,-0.00004674,-0.00015617,0.000
 26244,0.00001283,-0.00000182,-0.00001644,0.00000585,0.00001703,0.00004
 356,0.00001713,-0.00004679,-0.00000761,0.00002488,-0.00002250,0.000011
 04,-0.00002171,0.00000775,0.00002204,-0.00000699,-0.00000115,0.0000085
 5,-0.00002016,0.00000634,-0.00001342,0.00000555,0.00000358,-0.00000783
 ,0.00000248,0.00000581,-0.00001151,0.00000054,0.00003765,-0.00003489,-
 0.00002080,-0.00000042,-0.00001545,0.00001277,0.00003806,0.00002425,0.
 00003685,0.00001882,0.00000589,-0.00000104,-0.00004838,0.00002199,-0.0
 0001676,-0.00004420,-0.00003958,-0.00001354,0.00000394,0.00000542,-0.0
 0000253,0.00000151,-0.00000508,-0.00000301,0.00001470,-0.00000230,-0.0
 0000591,0.00000719,0.00000510,0.00000460,-0.00000140,-0.00000185,-0.00
 000356,-0.00000102,0.00000474,-0.00001223,-0.00001043,0.00003318,0.000
 00477,-0.00001993,0.00003427,-0.00000555,-0.00000545,0.00000071,-0.000
 01042,-0.00000120,-0.00001575,-0.00000089,-0.00000117,-0.00000407,0.00
 000178,0.00018737,-0.00022219,0.00013870,-0.00000377,-0.00010998,0.000
 06300,-0.00028369,0.00006429,0.00002305,-0.00001889,-0.00001436,-0.000
 02283,-0.00003548,-0.00032447,0.00030398,-0.00006606,-0.00000420,0.000
 07016,-0.00000302,0.00000962,-0.00000230,-0.00000614,0.00004785,0.0000
 5847,0.00006672,0.00004051,-0.00006587,0.00002290,0.00001164,0.0000123
 5,0.00002225,0.00002863,-0.00001355,0.00000215,-0.00000778,-0.00000513
 ,-0.00015168,0.00029884,-0.00010934,0.00014197,0.00000579,-0.00010802,
 0.00000376,0.00002218,-0.00000379,-0.00002307,-0.00003026,0.00001190,-
 0.00001757,-0.00000138,0.00000236,0.00002182,-0.00000411,-0.00000638,-
 0.00006210,0.00001365,0.00001619,0.00000624,-0.00001892,0.00000690,-0.
 00000726,0.00000275,-0.00000044,0.00000540,-0.00000233,-0.00000387,0.0
 0000687,0.00000401,-0.00000027,0.00000783,0.00002126,-0.00000580,0.000
 06935,-0.00001906,-0.00003567,-0.00002075,0.00003046,-0.00000554,-0.00
 000437,0.00000062,0.00000364,-0.00000381,-0.00000176,0.00000430,0.0000
 1156,-0.00003158,0.00001479,-0.00002760,-0.00000544,-0.00001477,-0.000
 00374,-0.00000014,0.00000297,-0.00005519,-0.00005278,-0.00004833,-0.00
 002743,-0.00007487,-0.00015727,-0.00004330,0.00003502,0.00006743,0.000
 35435,0.00011789,0.00024980,0.00004636,0.00009387,0.00006867,0.0000150
 9,-0.00006396,-0.00005717,-0.00018418,-0.00004672,-0.00011050,-0.00008
 541,-0.00003734,-0.00004340,-0.00007989,-0.00000646,-0.00000568,-0.000
 01574,-0.00000037,-0.00000289,0.00002033,0.00007259,0.00010268,0.00002
 434,0.00000101,-0.00000239,0.00000990,0.00000965,0.00001695,-0.0000088
 9,-0.00000533,-0.00000574,-0.00000333,-0.00001225,-0.00001119,0.000321
 65,-0.00008255,0.00017499,-0.00007248,0.00004181,-0.00006899,-0.000117
 93,0.00009417,-0.00005228,0.00069760,-0.00024257,0.00007442,-0.0002097
 4,0.00001373,0.00008956,-0.00045332,0.00016022,0.00001096,-0.00027293,
 0.00015578,-0.00021297,-0.00000406,-0.00000643,0.00000646,-0.00001667,
 0.00001294,-0.00000288,0.00000431,0.00002178,-0.00008446,0.00002123,-0
 .00017488,0.00004603,0.00329472,0.00458864,0.00316361,-0.02830109,0.01
 390915,-0.00528056,-0.00169937,0.00014145,-0.00037267,-0.00298453,-0.0
 0297023,-0.00287078,0.00007120,0.00006532,0.00000226,-0.00000541,0.000
 42331,0.00036976,0.00082278,0.00047957,0.00057676,0.00185858,0.0000358
 7,0.00080360,0.00013699,0.00000750,0.00006128,-0.00002118,0.00020865,0
 .00011397,0.00001528,-0.00002300,0.00000415,-0.00000238,0.00000275,-0.
 00000038,-0.00000487,0.00001193,-0.00000473,0.00000042,0.00000817,-0.0
 0000313,0.00000175,-0.00000564,0.00000011,0.00000193,-0.00000501,0.000
 00207,-0.00000934,0.00000168,0.00000245,-0.00000074,0.00000071,0.00000
 017,0.00000121,0.00000077,0.00000008,-0.00000082,0.00000077,0.00000023
 ,0.00004230,-0.00000331,-0.00000393,-0.00000898,0.00000092,0.00000192,
 -0.00001167,0.00000160,-0.00000387,-0.00001991,0.00000140,0.00000505,-
 0.26710760,0.08330871,-0.01958125,-0.08079999,-0.02130306,0.00879562,-
 0.02854717,0.01175717,-0.04657383,0.40344403,-0.00016596,0.00007448,-0
 .00004214,0.00009685,0.00009050,-0.00000835,-0.00006551,0.00003152,0.0
 0002991,0.00011639,-0.00005243,0.00002086,-0.00016391,0.00012240,-0.00
 002463,0.00013252,-0.00016410,0.00008257,0.00000293,0.00000506,0.00000
 262,-0.00001023,-0.00004018,-0.00001024,0.00002499,-0.00000149,-0.0000
 1764,0.00003906,-0.00002035,0.00002292,0.00000574,-0.00000733,0.000020
 10,-0.00001071,-0.00001240,0.00003121,-0.00000790,0.00002469,-0.000004
 99,-0.00000805,0.00000847,-0.00000177,-0.00000393,0.00000777,-0.000000
 71,-0.00009688,-0.00000733,-0.00000259,-0.00001036,0.00001008,-0.00000
 233,-0.00003107,-0.00002117,-0.00006107,-0.00000446,-0.00000172,0.0000
 0199,0.00002848,-0.00002661,0.00001454,0.00002955,0.00005340,0.0000276
 0,0.00000173,-0.00000527,0.00001066,0.00000350,0.00000056,0.00000456,-
 0.00000197,-0.00000026,0.00000060,0.00000770,0.00001401,-0.00000945,0.
 00000280,-0.00000195,0.00000643,-0.00000285,-0.00000136,0.00000945,0.0
 0006905,0.00000950,0.00001165,0.00001505,-0.00002173,0.00000421,0.0000
 0335,0.00000085,0.00000644,-0.00000045,0.00000770,0.00000216,0.0000005
 4,0.00000234,0.00000174,-0.00012130,0.00004849,-0.00004106,0.00004287,
 -0.00002270,-0.00005309,0.00009132,-0.00004065,-0.00010312,-0.00002350
 ,0.00007509,-0.00003733,0.00001801,0.00006009,-0.00019399,-0.00004210,
 0.00000032,-0.00006663,0.00000639,0.00000056,0.00000638,-0.00000221,-0
 .00001584,-0.00002351,-0.00001728,-0.00001702,0.00004103,0.00002120,0.
 00001224,-0.00001897,0.00000325,-0.00000930,0.00000628,0.00000123,0.00
 000609,0.00001607,0.00009303,-0.00012350,0.00011245,-0.00001058,0.0000
 4169,0.00015620,-0.00000101,-0.00001652,0.00000464,-0.00003515,-0.0000
 5097,0.00002110,0.00000469,-0.00000287,0.00000070,0.00000200,0.0000083
 4,-0.00000744,0.00002763,-0.00001920,-0.00000109,-0.00000852,0.0000084
 6,-0.00000221,-0.00000071,0.00000398,-0.00000054,0.00000202,0.00000474
 ,-0.00000155,0.00000074,0.00000235,-0.00000216,0.00000155,-0.00001442,
 0.00000767,-0.00003015,0.00001298,0.00001867,0.00001294,-0.00001454,0.
 00000153,0.00000169,0.00000031,-0.00000198,0.00000248,0.00000070,-0.00
 000185,-0.00000834,0.00002150,-0.00000748,0.00002346,0.00001168,0.0000
 0717,0.00000100,0.00000068,-0.00000200,0.00003610,0.00005714,0.0000672
 5,0.00002523,0.00006026,0.00010225,0.00003328,-0.00003016,-0.00004400,
 -0.00025687,-0.00003939,-0.00016241,-0.00006142,-0.00002901,-0.0000353
 7,-0.00001762,0.00005543,0.00004932,0.00023128,0.00001977,0.00005750,0
 .00008055,0.00002507,0.00001746,0.00007031,0.00000767,0.00000529,0.000
 00881,-0.00000158,0.00000273,0.00000163,-0.00004549,-0.00000162,-0.000
 02132,0.00000170,-0.00000414,-0.00000703,-0.00000426,0.00000720,0.0000
 0256,0.00000173,0.00000451,0.00000407,0.00000692,0.00001128,-0.0002315
 7,-0.00001906,-0.00012868,0.00004940,0.00000217,0.00004427,0.00007654,
 -0.00003311,0.00003211,-0.00053431,-0.00001058,-0.00005868,0.00015505,
 0.00004133,-0.00006737,0.00036756,-0.00000971,0.00002425,0.00022080,-0
 .00001261,0.00013774,0.00000202,0.00000020,-0.00000144,0.00000658,-0.0
 0000197,0.00000110,0.00026199,0.00020433,0.00026820,-0.00034621,0.0001
 4139,-0.00011629,-0.00276362,-0.00529349,-0.00513821,0.04254382,-0.010
 76945,0.00376695,0.00211591,-0.00096786,0.00052237,0.00061331,-0.00193
 761,-0.00034875,0.00046469,-0.00043997,-0.00010919,-0.00004950,-0.0005
 5491,-0.00027173,0.00088819,0.00019697,0.00043280,0.00149556,-0.003085
 41,-0.00120881,0.00003156,-0.00006497,-0.00003583,-0.00004960,-0.00010
 079,-0.00010642,-0.00000556,0.00000718,-0.00000154,0.00000182,0.000000
 24,0.00000014,0.00000011,-0.00000295,0.00000311,0.00000049,-0.00000272
 ,0.00000114,0.00000043,0.00000169,0.00000061,-0.00000158,0.00000169,-0
 .00000188,0.00000334,0.00000025,-0.00000075,0.00000021,-0.00000056,-0.
 00000036,-0.00000122,0.00000016,-0.00000074,0.00000008,-0.00000056,-0.
 00000036,-0.00002354,-0.00000867,0.00000020,0.00000515,0.00000443,0.00
 000072,0.00000663,0.00000175,0.00000197,0.00001095,0.00000145,-0.00000
 256,0.07377389,-0.11473277,0.00330142,-0.03843296,0.01385138,-0.000130
 15,0.00951376,0.00906065,0.01378698,-0.09035240,0.11439625,0.00012917,
 -0.00007027,-0.00009435,-0.00011315,-0.00008302,0.00009497,0.00009781,
 -0.00007088,-0.00009485,-0.00016735,0.00008710,-0.00001492,0.00033950,
 -0.00028571,-0.00019263,-0.00012454,0.00016179,0.00022155,0.00000675,-
 0.00000632,0.00000569,0.00000155,0.00000039,0.00002392,-0.00000998,0.0
 0000427,-0.00002308,0.00000528,-0.00000439,0.00002325,-0.00000397,-0.0
 0000645,0.00001401,0.00000809,-0.00000178,0.00001039,-0.00000100,0.000
 00785,-0.00000245,-0.00000340,0.00000640,0.00000153,-0.00000326,0.0000
 0526,-0.00000007,-0.00001045,-0.00000762,-0.00001868,0.00001190,-0.000
 00075,-0.00000140,-0.00001736,0.00000926,-0.00001862,0.00000076,0.0000
 0356,-0.00000006,0.00000749,0.00000427,0.00000653,0.00000759,0.0000067
 1,-0.00000222,-0.00000048,0.00000244,0.00001137,0.00000084,-0.00000337
 ,-0.00000177,-0.00000186,0.00000428,0.00001286,-0.00000229,-0.00000555
 ,-0.00000772,-0.00000031,-0.00000451,0.00000041,-0.00000152,-0.0000064
 3,0.00000132,0.00001462,0.00000855,0.00001526,-0.00001376,0.00001567,0
 .00000297,-0.00000264,-0.00000069,-0.00000531,-0.00000053,-0.00000290,
 -0.00000520,0.00000148,-0.00000024,0.00000128,0.00017504,-0.00025398,0
 .00021120,-0.00000070,-0.00014423,0.00000348,-0.00005689,0.00000739,-0
 .00000271,-0.00000091,0.00006663,-0.00007940,0.00005128,-0.00033367,0.
 00012354,0.00006525,0.00000356,0.00008575,-0.00000658,0.00002175,-0.00
 000361,0.00002095,0.00004984,0.00003303,0.00001522,0.00003423,-0.00005
 822,-0.00001550,-0.00003529,0.00000746,-0.00000120,0.00003021,-0.00001
 345,-0.00000691,-0.00001106,0.00000754,-0.00028807,0.00026716,0.000031
 50,-0.00004022,0.00008118,-0.00007190,0.00000246,0.00002677,-0.0000037
 1,0.00007670,0.00012450,-0.00004524,-0.00000014,0.00000047,0.00000284,
 0.00000091,0.00000040,0.00000391,-0.00000767,0.00000507,-0.00000052,0.
 00000197,-0.00000218,-0.00000027,0.00000036,-0.00000021,0.00000163,-0.
 00000035,-0.00000079,0.00000232,-0.00000042,-0.00000197,-0.00000213,-0
 .00000012,0.00000016,-0.00000537,0.00000751,0.00000047,-0.00000320,-0.
 00000315,0.00000400,0.00000069,-0.00000108,-0.00000071,-0.00000078,-0.
 00000116,-0.00000101,-0.00000087,0.00000104,-0.00000595,0.00000154,-0.
 00000693,-0.00000327,0.00000229,-0.00000090,-0.00000076,-0.00000080,-0
 .00000698,0.00001189,0.00001467,0.00000219,0.00001301,0.00001150,-0.00
 000171,-0.00000266,-0.00000638,-0.00003606,-0.00000597,-0.00000162,-0.
 00002762,0.00002658,0.00001257,-0.00000910,0.00000617,0.00000967,0.000
 10337,-0.00003984,-0.00000852,0.00002488,-0.00001110,-0.00000517,0.000
 00976,0.00000114,0.00000332,-0.00000157,0.00000031,-0.00000158,0.00004
 276,0.00004571,0.00002966,-0.00000572,-0.00000190,0.00000111,0.0000021
 2,0.00001116,0.00000533,-0.00000239,0.00000066,-0.00000146,0.00000242,
 0.00000240,-0.00000010,0.00004621,-0.00001353,-0.00003359,-0.00002148,
 0.00000684,0.00002351,-0.00001099,0.00000238,0.00001297,-0.00006379,-0
 .00000946,-0.00014912,-0.00000341,-0.00000146,0.00005656,0.00004121,0.
 00002827,0.00006243,-0.00002330,-0.00006777,0.00006024,-0.00000008,0.0
 0000014,0.00000042,-0.00000118,0.00000086,0.00000121,0.00013692,0.0001
 3416,0.00021052,-0.00019277,0.00000676,-0.00012501,-0.00103871,-0.0023
 2077,-0.00009209,0.01067711,-0.00666133,0.00933874,0.00080055,-0.00018
 400,-0.00030981,-0.00047228,-0.00169139,-0.00170439,0.00025097,-0.0002
 5790,0.00000046,0.00004435,-0.00004068,-0.00022292,0.00076703,0.000233
 44,0.00052936,0.00159080,-0.00181930,-0.00056031,0.00006871,-0.0000318
 2,-0.00000034,-0.00004824,-0.00000090,0.00001594,0.00000044,-0.0000007
 3,-0.00000049,-0.00000019,-0.00000007,0.00000146,0.00000115,0.00000039
 ,0.00000051,-0.00000029,0.00000044,0.00000036,-0.00000007,0.00000043,0
 .00000056,0.00000005,-0.00000054,-0.00000124,-0.00000024,0.00000004,0.
 00000068,-0.00000027,-0.00000007,-0.00000053,0.00000017,-0.00000046,-0
 .00000058,-0.00000014,-0.00000006,-0.00000049,-0.00000002,0.00000019,-
 0.00001240,-0.00000038,0.00000180,0.00000372,0.00000144,-0.00000159,0.
 00000569,-0.00000109,-0.00000020,0.00000243,-0.02595067,0.00693936,-0.
 07900752,0.01521674,-0.00002117,0.01169693,-0.06259904,0.02065036,-0.0
 3734235,0.06055370,-0.01463379,0.09728500\\-0.00000114,0.00000059,0.00
 000105,0.00000306,0.00000468,-0.00000492,-0.00000031,0.00000047,0.0000
 0074,0.00000056,0.00000030,0.00000023,-0.00000147,0.00000178,0.0000012
 7,0.00000202,-0.00000015,0.00000073,-0.00000071,0.00000165,0.00000126,
 -0.00000115,-0.00000027,0.00000044,0.00000029,0.00000054,0.00000116,-0
 .00000079,-0.00000054,0.00000053,-0.00000045,-0.00000062,0.00000181,0.
 00000003,-0.00000070,0.00000012,0.00000005,-0.00000030,0.00000089,-0.0
 0000051,-0.00000064,0.00000091,-0.00000013,-0.00000084,0.00000043,-0.0
 0000070,-0.00000045,-0.00000002,-0.00000166,0.00000066,0.00000038,0.00
 000012,-0.00000048,0.00000141,-0.00000031,-0.00000029,0.00000132,-0.00
 000038,0.00000123,0.00000029,-0.00000057,0.00000067,0.00000023,0.00000
 003,0.00000110,0.00000056,-0.00000096,0.00000018,0.00000110,-0.0000013
 4,0.00000072,0.00000120,-0.00000053,0.00000072,0.00000054,-0.00000078,
 0.00000091,0.00000094,-0.00000037,0.00000136,0.00000057,-0.00000098,-0
 .00000090,0.00000161,-0.00000093,0.00000126,0.00000029,-0.00000047,0.0
 0000042,0.00000087,-0.00000008,0.00000039,0.00000088,0.00000050,0.0000
 0005,0.00000014,0.00000057,0.00000041,-0.00000037,-0.00000037,0.000000
 90,-0.00000041,-0.00000058,0.00000103,-0.00000016,-0.00000086,0.000001
 11,0.00000044,0.00000029,0.00000116,-0.00000016,0.00000035,0.00000090,
 -0.00000017,-0.00000087,0.00000041,-0.00000042,0.00000013,0.00000111,-
 0.00000009,-0.00000028,0.00000144,0.00000051,0.00000060,0.00000113,0.0
 0000039,-0.00000008,0.00000165,0.00000007,-0.00000022,0.00000165,-0.00
 000035,0.00000106,0.00000058,-0.00000087,-0.00000086,0.00000136,-0.000
 00083,0.00000051,0.00000084,0.00000037,-0.00000200,-0.00000264,0.00000
 179,0.00000101,-0.00000097,-0.00000149,0.00000134,-0.00000023,-0.00000
 126,0.00000059,-0.00000132,-0.00000019,0.00000079,-0.00000051,-0.00000
 036,0.00000041,-0.00000180,-0.00000029,-0.00000024,-0.00000056,-0.0000
 0061,0.00000092,-0.00000105,-0.00000120,0.00000002,-0.00000041,-0.0000
 0075,0.00000112,-0.00000113,-0.00000060,0.00000075,0.00000007,-0.00000
 097,0.00000083,-0.00000184,-0.00000052,0.00000090,-0.00000103,-0.00000
 134,0.00000025,-0.00000196,-0.00000023,-0.00000015,-0.00000005,0.00000
 001,-0.00000008,-0.00000095,-0.00000020,-0.00000006,0.00000005,-0.0000
 0062,0.00000104,-0.00000043,-0.00000011,0.00000023,-0.00000064,-0.0000
 0134,-0.00000023,0.00000008,-0.00000029,0.00000120,0.00000044,-0.00000
 054,0.00000030,0.00000104,-0.00000017,0.00000012,-0.00000080,-0.000002
 51,-0.00000085,0.00000133,-0.00000016,-0.00000054,-0.00000090,-0.00000
 207,0.00000095,-0.00000038,-0.00000132,0.00000111,0.00000045,-0.000000
 81,0.00000142,0.00000111,-0.00000094,0.00000098,0.00000092,-0.00000087
 ,0.00000126,0.00000075,-0.00000085,0.00000071,0.00000044,-0.00000144,-
 0.00000068,-0.00000220,-0.00000002,0.00000147,0.00000101,0.00000067,0.
 00000025,0.00000029,-0.00000046,-0.00000180,-0.00000186,-0.00000135,0.
 00000083,0.00000064,-0.00000038,0.00000172,0.00000227,0.00000055,-0.00
 000141,-0.00000284,0.00000176,0.00000056,-0.00000091,-0.00000039,-0.00
 000108,-0.00000023,0.00000066,-0.00000074,-0.00000061,-0.00000034,0.00
 000198,0.00000137,0.00000022,-0.00000060,-0.00000019,-0.00000057,-0.00
 000012,0.00000019,-0.00000060,-0.00000104,-0.00000097,-0.00000215,0.00
 000057,-0.00000012,-0.00000003,0.00000042,0.00000062,0.00000062,-0.000
 00006,-0.00000010,0.00000015,0.00000021,0.00000026,0.00000024,0.000000
 20,0.00000056,-0.00000049,-0.00000031,-0.00000013,0.00000006,-0.000000
 15,-0.00000026,-0.00000033,0.00000006,-0.00000021,0.00000034,-0.000001
 33,-0.00000153,0.00000103,-0.00000020,-0.00000086,0.00000088,-0.000000
 27,-0.00000081,0.00000092,-0.00000142,-0.00000154,0.00000153,-0.000000
 54,-0.00000042,0.00000079,0.00000018,-0.00000136,0.00000117,-0.0000001
 8,-0.00000149,0.00000096,-0.00000032,-0.00000006,0.00000103,-0.0000009
 0,-0.00000100,0.00000118,0.00000129,-0.00000148,-0.00000056,-0.0000005
 5,-0.00000184,0.00000026,0.00000003,-0.00000103,0.00000103,-0.00000103
 ,-0.00000129,0.00000042,0.00000101,0.00000132,-0.00000105,0.00000051,-
 0.00000016,-0.00000068,0.00000038,0.00000074,-0.00000057,-0.00000039,-
 0.00000007,-0.00000112\\\@
 The archive entry for this job was punched.


 THE PROBLEM WITH THE LADDER OF SUCCESS IS YOU CAN'T
 CLIMB IT WHILE YOU'RE TWIDDLING YOUR THUMBS.
 Job cpu time:       3 days 20 hours 16 minutes 37.0 seconds.
 Elapsed time:       0 days  2 hours 54 minutes 24.5 seconds.
 File lengths (MBytes):  RWF=  23718 Int=      0 D2E=      0 Chk=    153 Scr=      1
 Normal termination of Gaussian 16 at Tue Jun 11 20:49:06 2024.
