 Entering Gaussian System, Link 0=g16
 Initial command:
 /ihome/crc/install/gaussian/c01/avx2/tar/g16/l1.exe "/scratch/slurm-18117088/Gau-24705.inp" -scrdir="/scratch/slurm-18117088/"
 Entering Link 1 = /ihome/crc/install/gaussian/c01/avx2/tar/g16/l1.exe PID=     24722.
  
 Copyright (c) 1988-2019, Gaussian, Inc.  All Rights Reserved.
  
 This is part of the Gaussian(R) 16 program.  It is based on
 the Gaussian(R) 09 system (copyright 2009, Gaussian, Inc.),
 the Gaussian(R) 03 system (copyright 2003, Gaussian, Inc.),
 the Gaussian(R) 98 system (copyright 1998, Gaussian, Inc.),
 the Gaussian(R) 94 system (copyright 1995, Gaussian, Inc.),
 the Gaussian 92(TM) system (copyright 1992, Gaussian, Inc.),
 the Gaussian 90(TM) system (copyright 1990, Gaussian, Inc.),
 the Gaussian 88(TM) system (copyright 1988, Gaussian, Inc.),
 the Gaussian 86(TM) system (copyright 1986, Carnegie Mellon
 University), and the Gaussian 82(TM) system (copyright 1983,
 Carnegie Mellon University). Gaussian is a federally registered
 trademark of Gaussian, Inc.
  
 This software contains proprietary and confidential information,
 including trade secrets, belonging to Gaussian, Inc.
  
 This software is provided under written license and may be
 used, copied, transmitted, or stored only in accord with that
 written license.
  
 The following legend is applicable only to US Government
 contracts under FAR:
  
                    RESTRICTED RIGHTS LEGEND
  
 Use, reproduction and disclosure by the US Government is
 subject to restrictions as set forth in subparagraphs (a)
 and (c) of the Commercial Computer Software - Restricted
 Rights clause in FAR 52.227-19.
  
 Gaussian, Inc.
 340 Quinnipiac St., Bldg. 40, Wallingford CT 06492
  
  
 ---------------------------------------------------------------
 Warning -- This program may not be used in any manner that
 competes with the business of Gaussian, Inc. or will provide
 assistance to any competitor of Gaussian, Inc.  The licensee
 of this program is prohibited from giving any competitor of
 Gaussian, Inc. access to this program.  By using this program,
 the user acknowledges that Gaussian, Inc. is engaged in the
 business of creating and licensing software in the field of
 computational chemistry and represents and warrants to the
 licensee that it is not a competitor of Gaussian, Inc. and that
 it will not use this program in any manner prohibited above.
 ---------------------------------------------------------------
  

 Cite this work as:
 Gaussian 16, Revision C.01,
 M. J. Frisch, G. W. Trucks, H. B. Schlegel, G. E. Scuseria, 
 M. A. Robb, J. R. Cheeseman, G. Scalmani, V. Barone, 
 G. A. Petersson, H. Nakatsuji, X. Li, M. Caricato, A. V. Marenich, 
 J. Bloino, B. G. Janesko, R. Gomperts, B. Mennucci, H. P. Hratchian, 
 J. V. Ortiz, A. F. Izmaylov, J. L. Sonnenberg, D. Williams-Young, 
 F. Ding, F. Lipparini, F. Egidi, J. Goings, B. Peng, A. Petrone, 
 T. Henderson, D. Ranasinghe, V. G. Zakrzewski, J. Gao, N. Rega, 
 G. Zheng, W. Liang, M. Hada, M. Ehara, K. Toyota, R. Fukuda, 
 J. Hasegawa, M. Ishida, T. Nakajima, Y. Honda, O. Kitao, H. Nakai, 
 T. Vreven, K. Throssell, J. A. Montgomery, Jr., J. E. Peralta, 
 F. Ogliaro, M. J. Bearpark, J. J. Heyd, E. N. Brothers, K. N. Kudin, 
 V. N. Staroverov, T. A. Keith, R. Kobayashi, J. Normand, 
 K. Raghavachari, A. P. Rendell, J. C. Burant, S. S. Iyengar, 
 J. Tomasi, M. Cossi, J. M. Millam, M. Klene, C. Adamo, R. Cammi, 
 J. W. Ochterski, R. L. Martin, K. Morokuma, O. Farkas, 
 J. B. Foresman, and D. J. Fox, Gaussian, Inc., Wallingford CT, 2019.
 
 ******************************************
 Gaussian 16:  ES64L-G16RevC.01  3-Jul-2019
                28-Feb-2025 
 ******************************************
 %nprocshared=16
 Will use up to   16 processors via shared memory.
 %mem=30GB
 ----------------------------------------------------------------------
 #p m062x genecp opt=(ts,calcfc,noeigentest,maxstep=8) freq nosymm scrf
 =(smd,solvent=propylethanoate) empiricaldispersion=gd3 scf=(xqc,maxcyc
 les=128)
 ----------------------------------------------------------------------
 1/5=1,8=8,10=4,11=1,18=20,26=3,38=1/1,3;
 2/9=110,12=2,15=1,17=6,18=5,40=1/2;
 3/5=7,11=2,16=1,17=8,25=1,30=1,70=32201,71=2,72=169,74=-55,124=31,140=1/1,2,3;
 4//1;
 5/5=2,7=128,8=3,13=1,38=5,53=169/2,8;
 8/6=4,10=90,11=11/1;
 11/6=1,8=1,9=11,15=111,16=1,31=1/1,2,10;
 10/6=1,13=1,31=1/2;
 6/7=2,8=2,9=2,10=2,28=1/1;
 7/10=1,25=1,30=1/1,2,3,16;
 1/5=1,8=8,10=4,11=1,18=20,26=3/3(2);
 2/9=110,15=1/2;
 99//99;
 2/9=110,15=1/2;
 3/5=7,6=1,11=2,16=1,17=8,25=1,30=1,70=32205,71=1,72=169,74=-55,82=7,124=31/1,2,3;
 4/5=5,16=3,69=1/1;
 5/5=2,7=128,8=3,13=1,38=5,53=169/2,8;
 7/30=1/1,2,3,16;
 1/5=1,8=8,11=1,18=20,26=3/3(-5);
 2/9=110,15=1/2;
 6/7=2,8=2,9=2,10=2,19=2,28=1/1;
 99/9=1/99;
 Leave Link    1 at Fri Feb 28 18:49:47 2025, MaxMem=  4026531840 cpu:               0.3 elap:               0.0
 (Enter /ihome/crc/install/gaussian/c01/avx2/tar/g16/l101.exe)
 -------------------
 Title Card Required
 -------------------
 Symbolic Z-matrix:
 Charge =  0 Multiplicity = 1
 N                     1.38257  -1.34445   1.73294 
 C                     1.63137  -2.08034   0.63594 
 C                     3.02551  -2.71295   0.64792 
 C                     3.63561  -2.14738   1.92101 
 C                     2.4818   -1.33795   2.54818 
 O                     2.576    -0.78282   3.62632 
 O                     0.82982  -2.22702  -0.2936 
 H                     2.91888  -3.80789   0.65174 
 H                     3.55259  -2.43712  -0.27702 
 H                     4.47844  -1.46332   1.73959 
 H                     3.97805  -2.90464   2.64059 
 C                     0.22603   1.47865   0.20295 
 C                    -0.19224   2.76772   0.39059 
 C                    -1.47787   2.9957    0.94612 
 C                    -2.27716   1.92098   1.27594 
 C                    -1.8074    0.58791   1.10668 
 N                    -0.56837   0.44205   0.58222 
 H                    -3.27659   2.0992    1.664 
 C                     1.50767   1.08835  -0.43589 
 C                     1.53618   0.40954  -1.66981 
 C                     2.76739  -0.03942  -2.16343 
 C                     3.9286    0.86731  -0.24144 
 C                     3.94804   0.18759  -1.45854 
 H                     2.79464  -0.55882  -3.12286 
 H                     4.89844  -0.16664  -1.8616 
 H                     4.83238   1.05302   0.33995 
 C                     2.70521   1.29935   0.2475 
 C                     0.28724   0.1726   -2.44835 
 C                    -0.03251  -1.1207   -2.88451 
 C                    -0.57334   1.23165  -2.77148 
 C                    -1.19397  -1.34796  -3.62188 
 H                     0.61534  -1.94957  -2.59693 
 C                    -1.73549   1.00158  -3.50702 
 H                    -0.32017   2.24734  -2.45952 
 C                    -2.05001  -0.28978  -3.93278 
 H                    -1.4371   -2.36147  -3.94735 
 H                    -2.3923    1.8371   -3.7568 
 H                    -2.96092  -0.47148  -4.50673 
 F                     2.66199   1.91271   1.43157 
 C                    -1.95378   4.40361   1.13651 
 H                    -1.27722   4.93498   1.82284 
 H                    -1.93349   4.94429   0.17855 
 H                    -2.97118   4.43744   1.54478 
 C                    -3.82191  -0.46977   2.05972 
 C                    -2.19103  -1.85736   0.94323 
 C                    -4.86626  -0.92731   1.05008 
 H                    -4.04897   0.52303   2.45701 
 H                    -3.80873  -1.17474   2.90562 
 C                    -3.29333  -2.28344  -0.01956 
 H                    -1.21734  -1.90933   0.43972 
 H                    -2.16061  -2.53885   1.80751 
 H                    -4.90534  -0.20804   0.20828 
 H                    -5.85788  -0.96904   1.52065 
 H                    -3.25853  -1.63471  -0.91682 
 H                    -3.13061  -3.32262  -0.33563 
 N                    -2.50048  -0.51253   1.43959 
 O                    -4.56526  -2.21862   0.58142 
 H                     0.44582   3.59688   0.08506 
 H                    -0.09808  -0.47752   0.62777 
 
 Add virtual bond connecting atoms H50        and O7         Dist= 4.15D+00.
 Add virtual bond connecting atoms H59        and N1         Dist= 3.86D+00.
 Add virtual bond connecting atoms H59        and O7         Dist= 4.13D+00.
 ITRead=  0  0  0  0  0  0  0  0  0  0  0  0  0  0  0  0  0  0  0  0
 ITRead=  0  0  0  0  0  0  0  0  0  0  0  0  0  0  0  0  0  0  0  0
 ITRead=  0  0  0  0  0  0  0  0  0  0  0  0  0  0  0  0  0  0  0
 MicOpt= -1 -1 -1 -1 -1 -1 -1 -1 -1 -1 -1 -1 -1 -1 -1 -1 -1 -1 -1 -1
 MicOpt= -1 -1 -1 -1 -1 -1 -1 -1 -1 -1 -1 -1 -1 -1 -1 -1 -1 -1 -1 -1
 MicOpt= -1 -1 -1 -1 -1 -1 -1 -1 -1 -1 -1 -1 -1 -1 -1 -1 -1 -1 -1
 NAtoms=     59 NQM=       59 NQMF=       0 NMMI=      0 NMMIF=      0
                NMic=       0 NMicF=      0.
                    Isotopes and Nuclear Properties:
 (Nuclear quadrupole moments (NQMom) in fm**2, nuclear magnetic moments (NMagM)
  in nuclear magnetons)

  Atom         1           2           3           4           5           6           7           8           9          10
 IAtWgt=          14          12          12          12          12          16          16           1           1           1
 AtmWgt=  14.0030740  12.0000000  12.0000000  12.0000000  12.0000000  15.9949146  15.9949146   1.0078250   1.0078250   1.0078250
 NucSpn=           2           0           0           0           0           0           0           1           1           1
 AtZEff=  -0.0000000  -0.0000000  -0.0000000  -0.0000000  -0.0000000  -0.0000000  -0.0000000  -0.0000000  -0.0000000  -0.0000000
 NQMom=    2.0440000   0.0000000   0.0000000   0.0000000   0.0000000   0.0000000   0.0000000   0.0000000   0.0000000   0.0000000
 NMagM=    0.4037610   0.0000000   0.0000000   0.0000000   0.0000000   0.0000000   0.0000000   2.7928460   2.7928460   2.7928460
 AtZNuc=   7.0000000   6.0000000   6.0000000   6.0000000   6.0000000   8.0000000   8.0000000   1.0000000   1.0000000   1.0000000

  Atom        11          12          13          14          15          16          17          18          19          20
 IAtWgt=           1          12          12          12          12          12          14           1          12          12
 AtmWgt=   1.0078250  12.0000000  12.0000000  12.0000000  12.0000000  12.0000000  14.0030740   1.0078250  12.0000000  12.0000000
 NucSpn=           1           0           0           0           0           0           2           1           0           0
 AtZEff=  -0.0000000  -0.0000000  -0.0000000  -0.0000000  -0.0000000  -0.0000000  -0.0000000  -0.0000000  -0.0000000  -0.0000000
 NQMom=    0.0000000   0.0000000   0.0000000   0.0000000   0.0000000   0.0000000   2.0440000   0.0000000   0.0000000   0.0000000
 NMagM=    2.7928460   0.0000000   0.0000000   0.0000000   0.0000000   0.0000000   0.4037610   2.7928460   0.0000000   0.0000000
 AtZNuc=   1.0000000   6.0000000   6.0000000   6.0000000   6.0000000   6.0000000   7.0000000   1.0000000   6.0000000   6.0000000

  Atom        21          22          23          24          25          26          27          28          29          30
 IAtWgt=          12          12          12           1           1           1          12          12          12          12
 AtmWgt=  12.0000000  12.0000000  12.0000000   1.0078250   1.0078250   1.0078250  12.0000000  12.0000000  12.0000000  12.0000000
 NucSpn=           0           0           0           1           1           1           0           0           0           0
 AtZEff=  -0.0000000  -0.0000000  -0.0000000  -0.0000000  -0.0000000  -0.0000000  -0.0000000  -0.0000000  -0.0000000  -0.0000000
 NQMom=    0.0000000   0.0000000   0.0000000   0.0000000   0.0000000   0.0000000   0.0000000   0.0000000   0.0000000   0.0000000
 NMagM=    0.0000000   0.0000000   0.0000000   2.7928460   2.7928460   2.7928460   0.0000000   0.0000000   0.0000000   0.0000000
 AtZNuc=   6.0000000   6.0000000   6.0000000   1.0000000   1.0000000   1.0000000   6.0000000   6.0000000   6.0000000   6.0000000

  Atom        31          32          33          34          35          36          37          38          39          40
 IAtWgt=          12           1          12           1          12           1           1           1          19          12
 AtmWgt=  12.0000000   1.0078250  12.0000000   1.0078250  12.0000000   1.0078250   1.0078250   1.0078250  18.9984032  12.0000000
 NucSpn=           0           1           0           1           0           1           1           1           1           0
 AtZEff=  -0.0000000  -0.0000000  -0.0000000  -0.0000000  -0.0000000  -0.0000000  -0.0000000  -0.0000000  -0.0000000  -0.0000000
 NQMom=    0.0000000   0.0000000   0.0000000   0.0000000   0.0000000   0.0000000   0.0000000   0.0000000   0.0000000   0.0000000
 NMagM=    0.0000000   2.7928460   0.0000000   2.7928460   0.0000000   2.7928460   2.7928460   2.7928460   2.6288670   0.0000000
 AtZNuc=   6.0000000   1.0000000   6.0000000   1.0000000   6.0000000   1.0000000   1.0000000   1.0000000   9.0000000   6.0000000

  Atom        41          42          43          44          45          46          47          48          49          50
 IAtWgt=           1           1           1          12          12          12           1           1          12           1
 AtmWgt=   1.0078250   1.0078250   1.0078250  12.0000000  12.0000000  12.0000000   1.0078250   1.0078250  12.0000000   1.0078250
 NucSpn=           1           1           1           0           0           0           1           1           0           1
 AtZEff=  -0.0000000  -0.0000000  -0.0000000  -0.0000000  -0.0000000  -0.0000000  -0.0000000  -0.0000000  -0.0000000  -0.0000000
 NQMom=    0.0000000   0.0000000   0.0000000   0.0000000   0.0000000   0.0000000   0.0000000   0.0000000   0.0000000   0.0000000
 NMagM=    2.7928460   2.7928460   2.7928460   0.0000000   0.0000000   0.0000000   2.7928460   2.7928460   0.0000000   2.7928460
 AtZNuc=   1.0000000   1.0000000   1.0000000   6.0000000   6.0000000   6.0000000   1.0000000   1.0000000   6.0000000   1.0000000

  Atom        51          52          53          54          55          56          57          58          59
 IAtWgt=           1           1           1           1           1          14          16           1           1
 AtmWgt=   1.0078250   1.0078250   1.0078250   1.0078250   1.0078250  14.0030740  15.9949146   1.0078250   1.0078250
 NucSpn=           1           1           1           1           1           2           0           1           1
 AtZEff=  -0.0000000  -0.0000000  -0.0000000  -0.0000000  -0.0000000  -0.0000000  -0.0000000  -0.0000000  -0.0000000
 NQMom=    0.0000000   0.0000000   0.0000000   0.0000000   0.0000000   2.0440000   0.0000000   0.0000000   0.0000000
 NMagM=    2.7928460   2.7928460   2.7928460   2.7928460   2.7928460   0.4037610   0.0000000   2.7928460   2.7928460
 AtZNuc=   1.0000000   1.0000000   1.0000000   1.0000000   1.0000000   7.0000000   8.0000000   1.0000000   1.0000000
 Leave Link  101 at Fri Feb 28 18:49:47 2025, MaxMem=  4026531840 cpu:               0.7 elap:               0.1
 (Enter /ihome/crc/install/gaussian/c01/avx2/tar/g16/l103.exe)

 GradGradGradGradGradGradGradGradGradGradGradGradGradGradGradGradGradGrad
 Berny optimization.
 Initialization pass.
                           ----------------------------
                           !    Initial Parameters    !
                           ! (Angstroms and Degrees)  !
 --------------------------                            --------------------------
 ! Name  Definition              Value          Derivative Info.                !
 --------------------------------------------------------------------------------
 ! R1    R(1,2)                  1.3442         calculate D2E/DX2 analytically  !
 ! R2    R(1,5)                  1.3686         calculate D2E/DX2 analytically  !
 ! R3    R(1,59)                 2.0409         calculate D2E/DX2 analytically  !
 ! R4    R(2,3)                  1.531          calculate D2E/DX2 analytically  !
 ! R5    R(2,7)                  1.2361         calculate D2E/DX2 analytically  !
 ! R6    R(3,4)                  1.5208         calculate D2E/DX2 analytically  !
 ! R7    R(3,8)                  1.1001         calculate D2E/DX2 analytically  !
 ! R8    R(3,9)                  1.0997         calculate D2E/DX2 analytically  !
 ! R9    R(4,5)                  1.5427         calculate D2E/DX2 analytically  !
 ! R10   R(4,10)                 1.1005         calculate D2E/DX2 analytically  !
 ! R11   R(4,11)                 1.0993         calculate D2E/DX2 analytically  !
 ! R12   R(5,6)                  1.2163         calculate D2E/DX2 analytically  !
 ! R13   R(7,50)                 2.1976         calculate D2E/DX2 analytically  !
 ! R14   R(7,59)                 2.1842         calculate D2E/DX2 analytically  !
 ! R15   R(12,13)                1.3682         calculate D2E/DX2 analytically  !
 ! R16   R(12,17)                1.3599         calculate D2E/DX2 analytically  !
 ! R17   R(12,19)                1.4843         calculate D2E/DX2 analytically  !
 ! R18   R(13,14)                1.419          calculate D2E/DX2 analytically  !
 ! R19   R(13,58)                1.0899         calculate D2E/DX2 analytically  !
 ! R20   R(14,15)                1.3794         calculate D2E/DX2 analytically  !
 ! R21   R(14,40)                1.4983         calculate D2E/DX2 analytically  !
 ! R22   R(15,16)                1.4235         calculate D2E/DX2 analytically  !
 ! R23   R(15,18)                1.0868         calculate D2E/DX2 analytically  !
 ! R24   R(16,17)                1.3533         calculate D2E/DX2 analytically  !
 ! R25   R(16,56)                1.3424         calculate D2E/DX2 analytically  !
 ! R26   R(17,59)                1.0339         calculate D2E/DX2 analytically  !
 ! R27   R(19,20)                1.4086         calculate D2E/DX2 analytically  !
 ! R28   R(19,27)                1.3949         calculate D2E/DX2 analytically  !
 ! R29   R(20,21)                1.4004         calculate D2E/DX2 analytically  !
 ! R30   R(20,28)                1.4907         calculate D2E/DX2 analytically  !
 ! R31   R(21,23)                1.3937         calculate D2E/DX2 analytically  !
 ! R32   R(21,24)                1.0913         calculate D2E/DX2 analytically  !
 ! R33   R(22,23)                1.3942         calculate D2E/DX2 analytically  !
 ! R34   R(22,26)                1.0906         calculate D2E/DX2 analytically  !
 ! R35   R(22,27)                1.3865         calculate D2E/DX2 analytically  !
 ! R36   R(23,25)                1.0914         calculate D2E/DX2 analytically  !
 ! R37   R(27,39)                1.3342         calculate D2E/DX2 analytically  !
 ! R38   R(28,29)                1.4018         calculate D2E/DX2 analytically  !
 ! R39   R(28,30)                1.4023         calculate D2E/DX2 analytically  !
 ! R40   R(29,31)                1.3944         calculate D2E/DX2 analytically  !
 ! R41   R(29,32)                1.0906         calculate D2E/DX2 analytically  !
 ! R42   R(30,33)                1.3945         calculate D2E/DX2 analytically  !
 ! R43   R(30,34)                1.0923         calculate D2E/DX2 analytically  !
 ! R44   R(31,35)                1.3961         calculate D2E/DX2 analytically  !
 ! R45   R(31,36)                1.0919         calculate D2E/DX2 analytically  !
 ! R46   R(33,35)                1.3956         calculate D2E/DX2 analytically  !
 ! R47   R(33,37)                1.0917         calculate D2E/DX2 analytically  !
 ! R48   R(35,38)                1.0919         calculate D2E/DX2 analytically  !
 ! R49   R(40,41)                1.1005         calculate D2E/DX2 analytically  !
 ! R50   R(40,42)                1.1002         calculate D2E/DX2 analytically  !
 ! R51   R(40,43)                1.0968         calculate D2E/DX2 analytically  !
 ! R52   R(44,46)                1.523          calculate D2E/DX2 analytically  !
 ! R53   R(44,47)                1.0932         calculate D2E/DX2 analytically  !
 ! R54   R(44,48)                1.1012         calculate D2E/DX2 analytically  !
 ! R55   R(44,56)                1.4603         calculate D2E/DX2 analytically  !
 ! R56   R(45,49)                1.5243         calculate D2E/DX2 analytically  !
 ! R57   R(45,50)                1.0974         calculate D2E/DX2 analytically  !
 ! R58   R(45,51)                1.1011         calculate D2E/DX2 analytically  !
 ! R59   R(45,56)                1.4665         calculate D2E/DX2 analytically  !
 ! R60   R(46,52)                1.1079         calculate D2E/DX2 analytically  !
 ! R61   R(46,53)                1.0984         calculate D2E/DX2 analytically  !
 ! R62   R(46,57)                1.4063         calculate D2E/DX2 analytically  !
 ! R63   R(49,54)                1.1078         calculate D2E/DX2 analytically  !
 ! R64   R(49,55)                1.0983         calculate D2E/DX2 analytically  !
 ! R65   R(49,57)                1.4083         calculate D2E/DX2 analytically  !
 ! A1    A(2,1,5)              109.8817         calculate D2E/DX2 analytically  !
 ! A2    A(2,1,59)              85.6929         calculate D2E/DX2 analytically  !
 ! A3    A(5,1,59)             154.5907         calculate D2E/DX2 analytically  !
 ! A4    A(1,2,3)              112.8532         calculate D2E/DX2 analytically  !
 ! A5    A(1,2,7)              123.9607         calculate D2E/DX2 analytically  !
 ! A6    A(3,2,7)              123.1835         calculate D2E/DX2 analytically  !
 ! A7    A(2,3,4)              102.6029         calculate D2E/DX2 analytically  !
 ! A8    A(2,3,8)              108.8453         calculate D2E/DX2 analytically  !
 ! A9    A(2,3,9)              109.0394         calculate D2E/DX2 analytically  !
 ! A10   A(4,3,8)              113.9605         calculate D2E/DX2 analytically  !
 ! A11   A(4,3,9)              114.7411         calculate D2E/DX2 analytically  !
 ! A12   A(8,3,9)              107.3983         calculate D2E/DX2 analytically  !
 ! A13   A(3,4,5)              103.6161         calculate D2E/DX2 analytically  !
 ! A14   A(3,4,10)             113.602          calculate D2E/DX2 analytically  !
 ! A15   A(3,4,11)             114.629          calculate D2E/DX2 analytically  !
 ! A16   A(5,4,10)             108.2809         calculate D2E/DX2 analytically  !
 ! A17   A(5,4,11)             109.1659         calculate D2E/DX2 analytically  !
 ! A18   A(10,4,11)            107.3075         calculate D2E/DX2 analytically  !
 ! A19   A(1,5,4)              110.859          calculate D2E/DX2 analytically  !
 ! A20   A(1,5,6)              126.3268         calculate D2E/DX2 analytically  !
 ! A21   A(4,5,6)              122.8142         calculate D2E/DX2 analytically  !
 ! A22   A(2,7,50)             109.6311         calculate D2E/DX2 analytically  !
 ! A23   A(2,7,59)              82.1386         calculate D2E/DX2 analytically  !
 ! A24   A(50,7,59)             49.2854         calculate D2E/DX2 analytically  !
 ! A25   A(13,12,17)           120.0891         calculate D2E/DX2 analytically  !
 ! A26   A(13,12,19)           124.8038         calculate D2E/DX2 analytically  !
 ! A27   A(17,12,19)           115.0867         calculate D2E/DX2 analytically  !
 ! A28   A(12,13,14)           118.8204         calculate D2E/DX2 analytically  !
 ! A29   A(12,13,58)           119.9568         calculate D2E/DX2 analytically  !
 ! A30   A(14,13,58)           121.1931         calculate D2E/DX2 analytically  !
 ! A31   A(13,14,15)           119.5672         calculate D2E/DX2 analytically  !
 ! A32   A(13,14,40)           119.2423         calculate D2E/DX2 analytically  !
 ! A33   A(15,14,40)           121.1775         calculate D2E/DX2 analytically  !
 ! A34   A(14,15,16)           120.6626         calculate D2E/DX2 analytically  !
 ! A35   A(14,15,18)           119.3712         calculate D2E/DX2 analytically  !
 ! A36   A(16,15,18)           119.9655         calculate D2E/DX2 analytically  !
 ! A37   A(15,16,17)           116.6879         calculate D2E/DX2 analytically  !
 ! A38   A(15,16,56)           124.5957         calculate D2E/DX2 analytically  !
 ! A39   A(17,16,56)           118.7139         calculate D2E/DX2 analytically  !
 ! A40   A(12,17,16)           124.106          calculate D2E/DX2 analytically  !
 ! A41   A(12,17,59)           115.1225         calculate D2E/DX2 analytically  !
 ! A42   A(16,17,59)           119.6861         calculate D2E/DX2 analytically  !
 ! A43   A(12,19,20)           121.4147         calculate D2E/DX2 analytically  !
 ! A44   A(12,19,27)           119.3859         calculate D2E/DX2 analytically  !
 ! A45   A(20,19,27)           118.9922         calculate D2E/DX2 analytically  !
 ! A46   A(19,20,21)           118.7553         calculate D2E/DX2 analytically  !
 ! A47   A(19,20,28)           121.1406         calculate D2E/DX2 analytically  !
 ! A48   A(21,20,28)           120.1035         calculate D2E/DX2 analytically  !
 ! A49   A(20,21,23)           120.9505         calculate D2E/DX2 analytically  !
 ! A50   A(20,21,24)           118.9743         calculate D2E/DX2 analytically  !
 ! A51   A(23,21,24)           120.0671         calculate D2E/DX2 analytically  !
 ! A52   A(23,22,26)           122.4708         calculate D2E/DX2 analytically  !
 ! A53   A(23,22,27)           118.1691         calculate D2E/DX2 analytically  !
 ! A54   A(26,22,27)           119.3517         calculate D2E/DX2 analytically  !
 ! A55   A(21,23,22)           120.6066         calculate D2E/DX2 analytically  !
 ! A56   A(21,23,25)           119.87           calculate D2E/DX2 analytically  !
 ! A57   A(22,23,25)           119.5232         calculate D2E/DX2 analytically  !
 ! A58   A(19,27,22)           122.5222         calculate D2E/DX2 analytically  !
 ! A59   A(19,27,39)           118.4587         calculate D2E/DX2 analytically  !
 ! A60   A(22,27,39)           118.9992         calculate D2E/DX2 analytically  !
 ! A61   A(20,28,29)           120.0162         calculate D2E/DX2 analytically  !
 ! A62   A(20,28,30)           120.9611         calculate D2E/DX2 analytically  !
 ! A63   A(29,28,30)           119.0171         calculate D2E/DX2 analytically  !
 ! A64   A(28,29,31)           120.3236         calculate D2E/DX2 analytically  !
 ! A65   A(28,29,32)           118.923          calculate D2E/DX2 analytically  !
 ! A66   A(31,29,32)           120.688          calculate D2E/DX2 analytically  !
 ! A67   A(28,30,33)           120.5552         calculate D2E/DX2 analytically  !
 ! A68   A(28,30,34)           119.6177         calculate D2E/DX2 analytically  !
 ! A69   A(33,30,34)           119.8173         calculate D2E/DX2 analytically  !
 ! A70   A(29,31,35)           120.3278         calculate D2E/DX2 analytically  !
 ! A71   A(29,31,36)           119.6286         calculate D2E/DX2 analytically  !
 ! A72   A(35,31,36)           120.0407         calculate D2E/DX2 analytically  !
 ! A73   A(30,33,35)           120.092          calculate D2E/DX2 analytically  !
 ! A74   A(30,33,37)           119.7229         calculate D2E/DX2 analytically  !
 ! A75   A(35,33,37)           120.1821         calculate D2E/DX2 analytically  !
 ! A76   A(31,35,33)           119.6823         calculate D2E/DX2 analytically  !
 ! A77   A(31,35,38)           120.1624         calculate D2E/DX2 analytically  !
 ! A78   A(33,35,38)           120.1553         calculate D2E/DX2 analytically  !
 ! A79   A(14,40,41)           109.7358         calculate D2E/DX2 analytically  !
 ! A80   A(14,40,42)           110.1992         calculate D2E/DX2 analytically  !
 ! A81   A(14,40,43)           111.7727         calculate D2E/DX2 analytically  !
 ! A82   A(41,40,42)           107.1212         calculate D2E/DX2 analytically  !
 ! A83   A(41,40,43)           108.8585         calculate D2E/DX2 analytically  !
 ! A84   A(42,40,43)           109.0301         calculate D2E/DX2 analytically  !
 ! A85   A(46,44,47)           111.7985         calculate D2E/DX2 analytically  !
 ! A86   A(46,44,48)           108.9727         calculate D2E/DX2 analytically  !
 ! A87   A(46,44,56)           109.2808         calculate D2E/DX2 analytically  !
 ! A88   A(47,44,48)           107.7402         calculate D2E/DX2 analytically  !
 ! A89   A(47,44,56)           111.6465         calculate D2E/DX2 analytically  !
 ! A90   A(48,44,56)           107.2545         calculate D2E/DX2 analytically  !
 ! A91   A(49,45,50)           109.7902         calculate D2E/DX2 analytically  !
 ! A92   A(49,45,51)           110.0452         calculate D2E/DX2 analytically  !
 ! A93   A(49,45,56)           108.5126         calculate D2E/DX2 analytically  !
 ! A94   A(50,45,51)           107.8382         calculate D2E/DX2 analytically  !
 ! A95   A(50,45,56)           112.7019         calculate D2E/DX2 analytically  !
 ! A96   A(51,45,56)           107.923          calculate D2E/DX2 analytically  !
 ! A97   A(44,46,52)           109.4422         calculate D2E/DX2 analytically  !
 ! A98   A(44,46,53)           110.2717         calculate D2E/DX2 analytically  !
 ! A99   A(44,46,57)           110.4886         calculate D2E/DX2 analytically  !
 ! A100  A(52,46,53)           108.5616         calculate D2E/DX2 analytically  !
 ! A101  A(52,46,57)           110.5154         calculate D2E/DX2 analytically  !
 ! A102  A(53,46,57)           107.5243         calculate D2E/DX2 analytically  !
 ! A103  A(45,49,54)           108.9772         calculate D2E/DX2 analytically  !
 ! A104  A(45,49,55)           109.8221         calculate D2E/DX2 analytically  !
 ! A105  A(45,49,57)           111.7603         calculate D2E/DX2 analytically  !
 ! A106  A(54,49,55)           108.4421         calculate D2E/DX2 analytically  !
 ! A107  A(54,49,57)           110.3084         calculate D2E/DX2 analytically  !
 ! A108  A(55,49,57)           107.4682         calculate D2E/DX2 analytically  !
 ! A109  A(16,56,44)           123.2631         calculate D2E/DX2 analytically  !
 ! A110  A(16,56,45)           123.9751         calculate D2E/DX2 analytically  !
 ! A111  A(44,56,45)           111.1931         calculate D2E/DX2 analytically  !
 ! A112  A(46,57,49)           112.1973         calculate D2E/DX2 analytically  !
 ! A113  A(1,59,7)              65.1645         calculate D2E/DX2 analytically  !
 ! A114  A(1,59,17)            137.0284         calculate D2E/DX2 analytically  !
 ! A115  A(7,59,17)            152.5117         calculate D2E/DX2 analytically  !
 ! A116  L(7,50,45,12,-1)      184.793          calculate D2E/DX2 analytically  !
 ! A117  L(7,50,45,12,-2)      188.5069         calculate D2E/DX2 analytically  !
 ! D1    D(5,1,2,3)              1.7476         calculate D2E/DX2 analytically  !
 ! D2    D(5,1,2,7)           -177.6849         calculate D2E/DX2 analytically  !
 ! D3    D(59,1,2,3)           161.1377         calculate D2E/DX2 analytically  !
 ! D4    D(59,1,2,7)           -18.2947         calculate D2E/DX2 analytically  !
 ! D5    D(2,1,5,4)              1.1962         calculate D2E/DX2 analytically  !
 ! D6    D(2,1,5,6)           -178.7822         calculate D2E/DX2 analytically  !
 ! D7    D(59,1,5,4)          -123.9143         calculate D2E/DX2 analytically  !
 ! D8    D(59,1,5,6)            56.1073         calculate D2E/DX2 analytically  !
 ! D9    D(2,1,59,7)             9.3443         calculate D2E/DX2 analytically  !
 ! D10   D(2,1,59,17)         -150.2515         calculate D2E/DX2 analytically  !
 ! D11   D(5,1,59,7)           138.8587         calculate D2E/DX2 analytically  !
 ! D12   D(5,1,59,17)          -20.7371         calculate D2E/DX2 analytically  !
 ! D13   D(1,2,3,4)             -3.8645         calculate D2E/DX2 analytically  !
 ! D14   D(1,2,3,8)            117.2009         calculate D2E/DX2 analytically  !
 ! D15   D(1,2,3,9)           -125.9258         calculate D2E/DX2 analytically  !
 ! D16   D(7,2,3,4)            175.5731         calculate D2E/DX2 analytically  !
 ! D17   D(7,2,3,8)            -63.3616         calculate D2E/DX2 analytically  !
 ! D18   D(7,2,3,9)             53.5118         calculate D2E/DX2 analytically  !
 ! D19   D(1,2,7,50)           -24.3777         calculate D2E/DX2 analytically  !
 ! D20   D(1,2,7,59)            17.1732         calculate D2E/DX2 analytically  !
 ! D21   D(3,2,7,50)           156.2472         calculate D2E/DX2 analytically  !
 ! D22   D(3,2,7,59)          -162.2019         calculate D2E/DX2 analytically  !
 ! D23   D(2,3,4,5)              4.0887         calculate D2E/DX2 analytically  !
 ! D24   D(2,3,4,10)          -113.1723         calculate D2E/DX2 analytically  !
 ! D25   D(2,3,4,11)           122.9473         calculate D2E/DX2 analytically  !
 ! D26   D(8,3,4,5)           -113.3993         calculate D2E/DX2 analytically  !
 ! D27   D(8,3,4,10)           129.3397         calculate D2E/DX2 analytically  !
 ! D28   D(8,3,4,11)             5.4594         calculate D2E/DX2 analytically  !
 ! D29   D(9,3,4,5)            122.1936         calculate D2E/DX2 analytically  !
 ! D30   D(9,3,4,10)             4.9326         calculate D2E/DX2 analytically  !
 ! D31   D(9,3,4,11)          -118.9477         calculate D2E/DX2 analytically  !
 ! D32   D(3,4,5,1)             -3.5331         calculate D2E/DX2 analytically  !
 ! D33   D(3,4,5,6)            176.4461         calculate D2E/DX2 analytically  !
 ! D34   D(10,4,5,1)           117.389          calculate D2E/DX2 analytically  !
 ! D35   D(10,4,5,6)           -62.6317         calculate D2E/DX2 analytically  !
 ! D36   D(11,4,5,1)          -126.0905         calculate D2E/DX2 analytically  !
 ! D37   D(11,4,5,6)            53.8888         calculate D2E/DX2 analytically  !
 ! D38   D(2,7,45,49)         -168.4513         calculate D2E/DX2 analytically  !
 ! D39   D(2,7,45,51)          -50.4731         calculate D2E/DX2 analytically  !
 ! D40   D(2,7,45,56)           65.8181         calculate D2E/DX2 analytically  !
 ! D41   D(59,7,45,49)         128.1638         calculate D2E/DX2 analytically  !
 ! D42   D(59,7,45,51)        -113.8579         calculate D2E/DX2 analytically  !
 ! D43   D(59,7,45,56)           2.4332         calculate D2E/DX2 analytically  !
 ! D44   D(2,7,59,1)           -10.2377         calculate D2E/DX2 analytically  !
 ! D45   D(2,7,59,17)          138.7738         calculate D2E/DX2 analytically  !
 ! D46   D(50,7,59,1)          114.2529         calculate D2E/DX2 analytically  !
 ! D47   D(50,7,59,17)         -96.7357         calculate D2E/DX2 analytically  !
 ! D48   D(17,12,13,14)         -1.9093         calculate D2E/DX2 analytically  !
 ! D49   D(17,12,13,58)       -179.9495         calculate D2E/DX2 analytically  !
 ! D50   D(19,12,13,14)        176.3669         calculate D2E/DX2 analytically  !
 ! D51   D(19,12,13,58)         -1.6733         calculate D2E/DX2 analytically  !
 ! D52   D(13,12,17,16)          2.5705         calculate D2E/DX2 analytically  !
 ! D53   D(13,12,17,59)       -165.4342         calculate D2E/DX2 analytically  !
 ! D54   D(19,12,17,16)       -175.8667         calculate D2E/DX2 analytically  !
 ! D55   D(19,12,17,59)         16.1286         calculate D2E/DX2 analytically  !
 ! D56   D(13,12,19,20)       -113.8084         calculate D2E/DX2 analytically  !
 ! D57   D(13,12,19,27)         71.4753         calculate D2E/DX2 analytically  !
 ! D58   D(17,12,19,20)         64.5448         calculate D2E/DX2 analytically  !
 ! D59   D(17,12,19,27)       -110.1716         calculate D2E/DX2 analytically  !
 ! D60   D(12,13,14,15)         -0.379          calculate D2E/DX2 analytically  !
 ! D61   D(12,13,14,40)       -179.0836         calculate D2E/DX2 analytically  !
 ! D62   D(58,13,14,15)        177.6361         calculate D2E/DX2 analytically  !
 ! D63   D(58,13,14,40)         -1.0685         calculate D2E/DX2 analytically  !
 ! D64   D(13,14,15,16)          2.1369         calculate D2E/DX2 analytically  !
 ! D65   D(13,14,15,18)       -177.5642         calculate D2E/DX2 analytically  !
 ! D66   D(40,14,15,16)       -179.1842         calculate D2E/DX2 analytically  !
 ! D67   D(40,14,15,18)          1.1147         calculate D2E/DX2 analytically  !
 ! D68   D(13,14,40,41)        -60.8365         calculate D2E/DX2 analytically  !
 ! D69   D(13,14,40,42)         56.8902         calculate D2E/DX2 analytically  !
 ! D70   D(13,14,40,43)        178.2944         calculate D2E/DX2 analytically  !
 ! D71   D(15,14,40,41)        120.4804         calculate D2E/DX2 analytically  !
 ! D72   D(15,14,40,42)       -121.7929         calculate D2E/DX2 analytically  !
 ! D73   D(15,14,40,43)         -0.3887         calculate D2E/DX2 analytically  !
 ! D74   D(14,15,16,17)         -1.5794         calculate D2E/DX2 analytically  !
 ! D75   D(14,15,16,56)        177.8399         calculate D2E/DX2 analytically  !
 ! D76   D(18,15,16,17)        178.1199         calculate D2E/DX2 analytically  !
 ! D77   D(18,15,16,56)         -2.4608         calculate D2E/DX2 analytically  !
 ! D78   D(15,16,17,12)         -0.7888         calculate D2E/DX2 analytically  !
 ! D79   D(15,16,17,59)        166.7018         calculate D2E/DX2 analytically  !
 ! D80   D(56,16,17,12)        179.7562         calculate D2E/DX2 analytically  !
 ! D81   D(56,16,17,59)        -12.7531         calculate D2E/DX2 analytically  !
 ! D82   D(15,16,56,44)         -1.8682         calculate D2E/DX2 analytically  !
 ! D83   D(15,16,56,45)        162.5794         calculate D2E/DX2 analytically  !
 ! D84   D(17,16,56,44)        177.5402         calculate D2E/DX2 analytically  !
 ! D85   D(17,16,56,45)        -18.0123         calculate D2E/DX2 analytically  !
 ! D86   D(12,17,59,1)          65.1224         calculate D2E/DX2 analytically  !
 ! D87   D(12,17,59,7)         -71.6039         calculate D2E/DX2 analytically  !
 ! D88   D(16,17,59,1)        -103.4528         calculate D2E/DX2 analytically  !
 ! D89   D(16,17,59,7)         119.8209         calculate D2E/DX2 analytically  !
 ! D90   D(12,19,20,21)       -174.2667         calculate D2E/DX2 analytically  !
 ! D91   D(12,19,20,28)          6.011          calculate D2E/DX2 analytically  !
 ! D92   D(27,19,20,21)          0.47           calculate D2E/DX2 analytically  !
 ! D93   D(27,19,20,28)       -179.2524         calculate D2E/DX2 analytically  !
 ! D94   D(12,19,27,22)        174.9196         calculate D2E/DX2 analytically  !
 ! D95   D(12,19,27,39)         -3.4446         calculate D2E/DX2 analytically  !
 ! D96   D(20,19,27,22)          0.0744         calculate D2E/DX2 analytically  !
 ! D97   D(20,19,27,39)       -178.2897         calculate D2E/DX2 analytically  !
 ! D98   D(19,20,21,23)         -0.5552         calculate D2E/DX2 analytically  !
 ! D99   D(19,20,21,24)       -179.5217         calculate D2E/DX2 analytically  !
 ! D100  D(28,20,21,23)        179.1701         calculate D2E/DX2 analytically  !
 ! D101  D(28,20,21,24)          0.2036         calculate D2E/DX2 analytically  !
 ! D102  D(19,20,28,29)       -127.7623         calculate D2E/DX2 analytically  !
 ! D103  D(19,20,28,30)         53.1119         calculate D2E/DX2 analytically  !
 ! D104  D(21,20,28,29)         52.5191         calculate D2E/DX2 analytically  !
 ! D105  D(21,20,28,30)       -126.6067         calculate D2E/DX2 analytically  !
 ! D106  D(20,21,23,22)          0.0926         calculate D2E/DX2 analytically  !
 ! D107  D(20,21,23,25)       -179.7578         calculate D2E/DX2 analytically  !
 ! D108  D(24,21,23,22)        179.0479         calculate D2E/DX2 analytically  !
 ! D109  D(24,21,23,25)         -0.8026         calculate D2E/DX2 analytically  !
 ! D110  D(26,22,23,21)        179.3882         calculate D2E/DX2 analytically  !
 ! D111  D(26,22,23,25)         -0.7608         calculate D2E/DX2 analytically  !
 ! D112  D(27,22,23,21)          0.4469         calculate D2E/DX2 analytically  !
 ! D113  D(27,22,23,25)       -179.7021         calculate D2E/DX2 analytically  !
 ! D114  D(23,22,27,19)         -0.534          calculate D2E/DX2 analytically  !
 ! D115  D(23,22,27,39)        177.8216         calculate D2E/DX2 analytically  !
 ! D116  D(26,22,27,19)       -179.5093         calculate D2E/DX2 analytically  !
 ! D117  D(26,22,27,39)         -1.1536         calculate D2E/DX2 analytically  !
 ! D118  D(20,28,29,31)       -179.5127         calculate D2E/DX2 analytically  !
 ! D119  D(20,28,29,32)          3.405          calculate D2E/DX2 analytically  !
 ! D120  D(30,28,29,31)         -0.3699         calculate D2E/DX2 analytically  !
 ! D121  D(30,28,29,32)       -177.4522         calculate D2E/DX2 analytically  !
 ! D122  D(20,28,30,33)        179.6167         calculate D2E/DX2 analytically  !
 ! D123  D(20,28,30,34)          0.7566         calculate D2E/DX2 analytically  !
 ! D124  D(29,28,30,33)          0.4822         calculate D2E/DX2 analytically  !
 ! D125  D(29,28,30,34)       -178.3778         calculate D2E/DX2 analytically  !
 ! D126  D(28,29,31,35)         -0.0135         calculate D2E/DX2 analytically  !
 ! D127  D(28,29,31,36)       -179.3918         calculate D2E/DX2 analytically  !
 ! D128  D(32,29,31,35)        177.0168         calculate D2E/DX2 analytically  !
 ! D129  D(32,29,31,36)         -2.3615         calculate D2E/DX2 analytically  !
 ! D130  D(28,30,33,35)         -0.2103         calculate D2E/DX2 analytically  !
 ! D131  D(28,30,33,37)       -179.5867         calculate D2E/DX2 analytically  !
 ! D132  D(34,30,33,35)        178.6475         calculate D2E/DX2 analytically  !
 ! D133  D(34,30,33,37)         -0.7289         calculate D2E/DX2 analytically  !
 ! D134  D(29,31,35,33)          0.2903         calculate D2E/DX2 analytically  !
 ! D135  D(29,31,35,38)       -179.7424         calculate D2E/DX2 analytically  !
 ! D136  D(36,31,35,33)        179.666          calculate D2E/DX2 analytically  !
 ! D137  D(36,31,35,38)         -0.3667         calculate D2E/DX2 analytically  !
 ! D138  D(30,33,35,31)         -0.1786         calculate D2E/DX2 analytically  !
 ! D139  D(30,33,35,38)        179.8541         calculate D2E/DX2 analytically  !
 ! D140  D(37,33,35,31)        179.1949         calculate D2E/DX2 analytically  !
 ! D141  D(37,33,35,38)         -0.7724         calculate D2E/DX2 analytically  !
 ! D142  D(47,44,46,52)         59.4992         calculate D2E/DX2 analytically  !
 ! D143  D(47,44,46,53)        -59.857          calculate D2E/DX2 analytically  !
 ! D144  D(47,44,46,57)       -178.5868         calculate D2E/DX2 analytically  !
 ! D145  D(48,44,46,52)        178.4801         calculate D2E/DX2 analytically  !
 ! D146  D(48,44,46,53)         59.1238         calculate D2E/DX2 analytically  !
 ! D147  D(48,44,46,57)        -59.606          calculate D2E/DX2 analytically  !
 ! D148  D(56,44,46,52)        -64.6119         calculate D2E/DX2 analytically  !
 ! D149  D(56,44,46,53)        176.0319         calculate D2E/DX2 analytically  !
 ! D150  D(56,44,46,57)         57.302          calculate D2E/DX2 analytically  !
 ! D151  D(46,44,56,16)        108.8342         calculate D2E/DX2 analytically  !
 ! D152  D(46,44,56,45)        -57.3692         calculate D2E/DX2 analytically  !
 ! D153  D(47,44,56,16)        -15.3662         calculate D2E/DX2 analytically  !
 ! D154  D(47,44,56,45)        178.4304         calculate D2E/DX2 analytically  !
 ! D155  D(48,44,56,16)       -133.1757         calculate D2E/DX2 analytically  !
 ! D156  D(48,44,56,45)         60.6209         calculate D2E/DX2 analytically  !
 ! D157  D(50,45,49,54)        -57.2106         calculate D2E/DX2 analytically  !
 ! D158  D(50,45,49,55)         61.4455         calculate D2E/DX2 analytically  !
 ! D159  D(50,45,49,57)       -179.3815         calculate D2E/DX2 analytically  !
 ! D160  D(51,45,49,54)       -175.7551         calculate D2E/DX2 analytically  !
 ! D161  D(51,45,49,55)        -57.0989         calculate D2E/DX2 analytically  !
 ! D162  D(51,45,49,57)         62.074          calculate D2E/DX2 analytically  !
 ! D163  D(56,45,49,54)         66.3644         calculate D2E/DX2 analytically  !
 ! D164  D(56,45,49,55)       -174.9794         calculate D2E/DX2 analytically  !
 ! D165  D(56,45,49,57)        -55.8065         calculate D2E/DX2 analytically  !
 ! D166  D(49,45,56,16)       -109.9574         calculate D2E/DX2 analytically  !
 ! D167  D(49,45,56,44)         56.1293         calculate D2E/DX2 analytically  !
 ! D168  D(50,45,56,16)         11.8536         calculate D2E/DX2 analytically  !
 ! D169  D(50,45,56,44)        177.9402         calculate D2E/DX2 analytically  !
 ! D170  D(51,45,56,16)        130.8202         calculate D2E/DX2 analytically  !
 ! D171  D(51,45,56,44)        -63.0931         calculate D2E/DX2 analytically  !
 ! D172  D(44,46,57,49)        -58.3699         calculate D2E/DX2 analytically  !
 ! D173  D(52,46,57,49)         62.9097         calculate D2E/DX2 analytically  !
 ! D174  D(53,46,57,49)       -178.7583         calculate D2E/DX2 analytically  !
 ! D175  D(45,49,57,46)         58.2552         calculate D2E/DX2 analytically  !
 ! D176  D(54,49,57,46)        -63.149          calculate D2E/DX2 analytically  !
 ! D177  D(55,49,57,46)        178.8114         calculate D2E/DX2 analytically  !
 --------------------------------------------------------------------------------
 Trust Radius=8.00D-02 FncErr=1.00D-07 GrdErr=1.00D-06 EigMax=2.50D+02 EigMin=1.00D-04
 Number of steps in this run=    354 maximum allowed number of steps=    354.
 Search for a saddle point of order  1.
 GradGradGradGradGradGradGradGradGradGradGradGradGradGradGradGradGradGrad

 Leave Link  103 at Fri Feb 28 18:49:47 2025, MaxMem=  4026531840 cpu:               0.1 elap:               0.0
 (Enter /ihome/crc/install/gaussian/c01/avx2/tar/g16/l202.exe)
 Symmetry turned off by external request.
 Stoichiometry    C26H26FN3O3
 Framework group  C1[X(C26H26FN3O3)]
 Deg. of freedom   171
 Full point group                 C1      NOp   1
                          Input orientation:                          
 ---------------------------------------------------------------------
 Center     Atomic      Atomic             Coordinates (Angstroms)
 Number     Number       Type             X           Y           Z
 ---------------------------------------------------------------------
      1          7           0        1.382569   -1.344450    1.732943
      2          6           0        1.631372   -2.080340    0.635938
      3          6           0        3.025508   -2.712945    0.647918
      4          6           0        3.635607   -2.147376    1.921012
      5          6           0        2.481804   -1.337945    2.548182
      6          8           0        2.576000   -0.782823    3.626321
      7          8           0        0.829821   -2.227015   -0.293599
      8          1           0        2.918875   -3.807890    0.651743
      9          1           0        3.552589   -2.437115   -0.277023
     10          1           0        4.478440   -1.463322    1.739593
     11          1           0        3.978047   -2.904636    2.640590
     12          6           0        0.226027    1.478654    0.202949
     13          6           0       -0.192243    2.767718    0.390588
     14          6           0       -1.477873    2.995695    0.946119
     15          6           0       -2.277155    1.920977    1.275943
     16          6           0       -1.807395    0.587905    1.106678
     17          7           0       -0.568365    0.442052    0.582216
     18          1           0       -3.276588    2.099198    1.664001
     19          6           0        1.507670    1.088355   -0.435885
     20          6           0        1.536184    0.409535   -1.669806
     21          6           0        2.767389   -0.039422   -2.163428
     22          6           0        3.928602    0.867313   -0.241443
     23          6           0        3.948041    0.187594   -1.458536
     24          1           0        2.794641   -0.558817   -3.122857
     25          1           0        4.898438   -0.166642   -1.861598
     26          1           0        4.832377    1.053020    0.339950
     27          6           0        2.705211    1.299348    0.247503
     28          6           0        0.287235    0.172595   -2.448345
     29          6           0       -0.032505   -1.120704   -2.884511
     30          6           0       -0.573335    1.231646   -2.771479
     31          6           0       -1.193971   -1.347964   -3.621877
     32          1           0        0.615336   -1.949571   -2.596925
     33          6           0       -1.735485    1.001575   -3.507020
     34          1           0       -0.320169    2.247340   -2.459522
     35          6           0       -2.050005   -0.289778   -3.932782
     36          1           0       -1.437102   -2.361467   -3.947345
     37          1           0       -2.392303    1.837099   -3.756803
     38          1           0       -2.960916   -0.471476   -4.506728
     39          9           0        2.661986    1.912711    1.431567
     40          6           0       -1.953781    4.403609    1.136511
     41          1           0       -1.277222    4.934979    1.822841
     42          1           0       -1.933489    4.944287    0.178553
     43          1           0       -2.971179    4.437440    1.544775
     44          6           0       -3.821906   -0.469767    2.059716
     45          6           0       -2.191031   -1.857361    0.943231
     46          6           0       -4.866255   -0.927309    1.050078
     47          1           0       -4.048972    0.523025    2.457012
     48          1           0       -3.808726   -1.174743    2.905618
     49          6           0       -3.293327   -2.283437   -0.019559
     50          1           0       -1.217343   -1.909332    0.439717
     51          1           0       -2.160613   -2.538854    1.807513
     52          1           0       -4.905341   -0.208038    0.208281
     53          1           0       -5.857876   -0.969042    1.520650
     54          1           0       -3.258534   -1.634707   -0.916823
     55          1           0       -3.130606   -3.322617   -0.335630
     56          7           0       -2.500476   -0.512527    1.439586
     57          8           0       -4.565256   -2.218616    0.581418
     58          1           0        0.445820    3.596880    0.085061
     59          1           0       -0.098079   -0.477524    0.627767
 ---------------------------------------------------------------------
 Rotational constants (GHZ):           0.1701170           0.1182598           0.1125203
 Leave Link  202 at Fri Feb 28 18:49:47 2025, MaxMem=  4026531840 cpu:               0.2 elap:               0.0
 (Enter /ihome/crc/install/gaussian/c01/avx2/tar/g16/l301.exe)
 General basis read from cards:  (5D, 7F)
 Centers:       2      3      4      5     12     13     14     15     16     19
 Centers:      20     21     22     23     27     28     29     30     31     33
 Centers:      35     40     44     45     46     49      8      9     10     11
 Centers:      18     24     25     26     32     34     36     37     38     41
 Centers:      42     43     47     48     50     51     52     53     54     55
 Centers:      58     59      1     17     56     39      6      7     57
 def2svp
 ****
 ======================================================================================================
                                       Pseudopotential Parameters
 ======================================================================================================
  Center     Atomic      Valence      Angular      Power
  Number     Number     Electrons     Momentum     of R      Exponent        Coefficient   SO-Coeffient
 ======================================================================================================
    1          7
                                   No pseudopotential on this center.
    2          6
                                   No pseudopotential on this center.
    3          6
                                   No pseudopotential on this center.
    4          6
                                   No pseudopotential on this center.
    5          6
                                   No pseudopotential on this center.
    6          8
                                   No pseudopotential on this center.
    7          8
                                   No pseudopotential on this center.
    8          1
                                   No pseudopotential on this center.
    9          1
                                   No pseudopotential on this center.
   10          1
                                   No pseudopotential on this center.
   11          1
                                   No pseudopotential on this center.
   12          6
                                   No pseudopotential on this center.
   13          6
                                   No pseudopotential on this center.
   14          6
                                   No pseudopotential on this center.
   15          6
                                   No pseudopotential on this center.
   16          6
                                   No pseudopotential on this center.
   17          7
                                   No pseudopotential on this center.
   18          1
                                   No pseudopotential on this center.
   19          6
                                   No pseudopotential on this center.
   20          6
                                   No pseudopotential on this center.
   21          6
                                   No pseudopotential on this center.
   22          6
                                   No pseudopotential on this center.
   23          6
                                   No pseudopotential on this center.
   24          1
                                   No pseudopotential on this center.
   25          1
                                   No pseudopotential on this center.
   26          1
                                   No pseudopotential on this center.
   27          6
                                   No pseudopotential on this center.
   28          6
                                   No pseudopotential on this center.
   29          6
                                   No pseudopotential on this center.
   30          6
                                   No pseudopotential on this center.
   31          6
                                   No pseudopotential on this center.
   32          1
                                   No pseudopotential on this center.
   33          6
                                   No pseudopotential on this center.
   34          1
                                   No pseudopotential on this center.
   35          6
                                   No pseudopotential on this center.
   36          1
                                   No pseudopotential on this center.
   37          1
                                   No pseudopotential on this center.
   38          1
                                   No pseudopotential on this center.
   39          9
                                   No pseudopotential on this center.
   40          6
                                   No pseudopotential on this center.
   41          1
                                   No pseudopotential on this center.
   42          1
                                   No pseudopotential on this center.
   43          1
                                   No pseudopotential on this center.
   44          6
                                   No pseudopotential on this center.
   45          6
                                   No pseudopotential on this center.
   46          6
                                   No pseudopotential on this center.
   47          1
                                   No pseudopotential on this center.
   48          1
                                   No pseudopotential on this center.
   49          6
                                   No pseudopotential on this center.
   50          1
                                   No pseudopotential on this center.
   51          1
                                   No pseudopotential on this center.
   52          1
                                   No pseudopotential on this center.
   53          1
                                   No pseudopotential on this center.
   54          1
                                   No pseudopotential on this center.
   55          1
                                   No pseudopotential on this center.
   56          7
                                   No pseudopotential on this center.
   57          8
                                   No pseudopotential on this center.
   58          1
                                   No pseudopotential on this center.
   59          1
                                   No pseudopotential on this center.
 ======================================================================================================
 Ernie: Thresh=  0.10000D-02 Tol=  0.10000D-05 Strict=F.
   592 basis functions,  1007 primitive gaussians,   625 cartesian basis functions
   118 alpha electrons      118 beta electrons
       nuclear repulsion energy      3606.4000867059 Hartrees.
 IExCor= 4336 DFT=T Ex+Corr=M062X ExCW=0 ScaHFX=  0.540000
 ScaDFX=  1.000000  1.000000  1.000000  1.000000 ScalE2=  1.000000  1.000000
 IRadAn=      5 IRanWt=     -1 IRanGd=            0 ICorTp=0 IEmpDi=131
 NAtoms=   59 NActive=   59 NUniq=   59 SFac= 1.00D+00 NAtFMM=   60 NAOKFM=F Big=F
 Integral buffers will be    131072 words long.
 Raffenetti 2 integral format.
 Two-electron integral symmetry is turned off.
 R6Disp:  Grimme-D3 Dispersion energy=       -0.0065625113 Hartrees.
 Nuclear repulsion after empirical dispersion term =     3606.3935241946 Hartrees.
 Force inversion solution in PCM.
 ------------------------------------------------------------------------------
 Polarizable Continuum Model (PCM)
 =================================
 Model                : PCM.
 Atomic radii         : SMD-Coulomb.
 Polarization charges : Total charges.
 Charge compensation  : None.
 Solution method      : Matrix inversion.
 Cavity type          : VdW (van der Waals Surface) (Alpha=1.000).
 Cavity algorithm     : GePol (No added spheres)
                        Default sphere list used, NSphG=   59.
                        Lebedev-Laikov grids with approx.  5.0 points / Ang**2.
                        Smoothing algorithm: York/Karplus (Gamma=1.0000).
                        Polarization charges: spherical gaussians, with
                                              point-specific exponents (IZeta= 3).
                        Self-potential: point-specific (ISelfS= 7).
                        Self-field    : sphere-specific E.n sum rule (ISelfD= 2).
 1st derivatives      : Analytical E(r).r(x)/FMM algorithm (CHGder, D1EAlg=3).
                        Cavity 1st derivative terms included.
 2nd derivatives      : Analytical E(r).r(xy)/FMM algorithm (CHGder, D2EAlg=3).
                        Cavity 2nd derivative terms included.
 Solvent              : PropylEthanoate, Eps=   5.520500 Eps(inf)=   1.916010
 ------------------------------------------------------------------------------
 GePol: Number of generator spheres                  =      59
 GePol: Total number of spheres                      =      59
 GePol: Number of exposed spheres                    =      59 (100.00%)
 GePol: Number of points                             =    4214
 GePol: Average weight of points                     =       0.11
 GePol: Minimum weight of points                     =   0.13D-11
 GePol: Maximum weight of points                     =    0.21501
 GePol: Number of points with low weight             =     258
 GePol: Fraction of low-weight points (<1% of avg)   =       6.12%
 GePol: Cavity surface area                          =    470.768 Ang**2
 GePol: Cavity volume                                =    495.132 Ang**3
 ------------------------------------------------------------------------------
 Atomic radii for non-electrostatic terms: SMD-CDS.
 ------------------------------------------------------------------------------
 PCM non-electrostatic energy =        -0.0139433261 Hartrees.
 Nuclear repulsion after PCM non-electrostatic terms =     3606.3795808685 Hartrees.
 Leave Link  301 at Fri Feb 28 18:49:47 2025, MaxMem=  4026531840 cpu:               0.7 elap:               0.1
 (Enter /ihome/crc/install/gaussian/c01/avx2/tar/g16/l302.exe)
 NPDir=0 NMtPBC=     1 NCelOv=     1 NCel=       1 NClECP=     1 NCelD=      1
         NCelK=      1 NCelE2=     1 NClLst=     1 CellRange=     0.0.
 One-electron integrals computed using PRISM.
   1 Symmetry operations used in ECPInt.
 ECPInt:  NShTT=   38226 NPrTT=  139108 LenC2=   33866 LenP2D=   81433.
 LDataN:  DoStor=T MaxTD1= 4 Len=   56
 NBasis=   592 RedAO= T EigKep=  2.00D-04  NBF=   592
 NBsUse=   592 1.00D-06 EigRej= -1.00D+00 NBFU=   592
 Precomputing XC quadrature grid using
 IXCGrd= 4 IRadAn=           5 IRanWt=          -1 IRanGd=           0 AccXCQ= 0.00D+00.
 Generated NRdTot=       0 NPtTot=           0 NUsed=           0 NTot=          32
 NSgBfM=   622   621   622   622   622 MxSgAt=    59 MxSgA2=    59.
 Leave Link  302 at Fri Feb 28 18:49:48 2025, MaxMem=  4026531840 cpu:               7.3 elap:               0.5
 (Enter /ihome/crc/install/gaussian/c01/avx2/tar/g16/l303.exe)
 DipDrv:  MaxL=1.
 Leave Link  303 at Fri Feb 28 18:49:48 2025, MaxMem=  4026531840 cpu:               0.7 elap:               0.1
 (Enter /ihome/crc/install/gaussian/c01/avx2/tar/g16/l401.exe)
 ExpMin= 1.22D-01 ExpMax= 2.89D+03 ExpMxC= 4.35D+02 IAcc=3 IRadAn=         5 AccDes= 0.00D+00
 Harris functional with IExCor= 1009 and IRadAn=       5 diagonalized for initial guess.
 HarFok:  IExCor= 1009 AccDes= 0.00D+00 IRadAn=         5 IDoV= 1 UseB2=F ITyADJ=14
 ICtDFT=  3500011 ScaDFX=  1.000000  1.000000  1.000000  1.000000
 FoFCou: FMM=F IPFlag=           0 FMFlag=      100000 FMFlg1=           0
         NFxFlg=           0 DoJE=T BraDBF=F KetDBF=T FulRan=T
         wScrn=  0.000000 ICntrl=       500 IOpCl=  0 I1Cent=   200000004 NGrid=           0
         NMat0=    1 NMatS0=      1 NMatT0=    0 NMatD0=    1 NMtDS0=    0 NMtDT0=    0
 Symmetry not used in FoFCou.
 Harris En= -1493.76087754986    
 JPrj=0 DoOrth=F DoCkMO=F.
 Leave Link  401 at Fri Feb 28 18:49:49 2025, MaxMem=  4026531840 cpu:              19.8 elap:               1.2
 (Enter /ihome/crc/install/gaussian/c01/avx2/tar/g16/l502.exe)
 Two-electron integral symmetry not used.
 Closed shell SCF:
 Using DIIS extrapolation, IDIIS=  1040.
 NGot=  4026531840 LenX=  4025734113 LenY=  4025342863
 Requested convergence on RMS density matrix=1.00D-08 within 128 cycles.
 Requested convergence on MAX density matrix=1.00D-06.
 Requested convergence on             energy=1.00D-06.
 No special actions if energy rises.
 Fock matrices will be formed incrementally for  20 cycles.

 Cycle   1  Pass 1  IDiag  1:
 FoFJK:  IHMeth= 1 ICntrl=       0 DoSepK=F KAlg= 0 I1Cent=           0 FoldK=F
 IRaf= 810000000 NMat=       1 IRICut=       1 DoRegI=T DoRafI=F ISym2E= 0 IDoP0=0 IntGTp=1.
 FoFCou: FMM=F IPFlag=           0 FMFlag=      100000 FMFlg1=           0
         NFxFlg=           0 DoJE=F BraDBF=F KetDBF=F FulRan=T
         wScrn=  0.000000 ICntrl=         0 IOpCl=  0 I1Cent=           0 NGrid=           0
         NMat0=    1 NMatS0=      1 NMatT0=    0 NMatD0=    1 NMtDS0=    0 NMtDT0=    0
 Symmetry not used in FoFCou.
 Inv3:  Mode=1 IEnd=    53273388.
 Iteration    1 A*A^-1 deviation from unit magnitude is 4.11D-15 for    229.
 Iteration    1 A*A^-1 deviation from orthogonality  is 2.89D-15 for   2932   1079.
 Iteration    1 A^-1*A deviation from unit magnitude is 4.00D-15 for    745.
 Iteration    1 A^-1*A deviation from orthogonality  is 2.97D-15 for   3252   3225.
 E= -1493.91374783668    
 DIIS: error= 2.55D-02 at cycle   1 NSaved=   1.
 NSaved= 1 IEnMin= 1 EnMin= -1493.91374783668     IErMin= 1 ErrMin= 2.55D-02
 ErrMax= 2.55D-02  0.00D+00 EMaxC= 1.00D-01 BMatC= 6.63D-01 BMatP= 6.63D-01
 IDIUse=3 WtCom= 7.45D-01 WtEn= 2.55D-01
 Coeff-Com:  0.100D+01
 Coeff-En:   0.100D+01
 Coeff:      0.100D+01
 Gap=     0.305 Goal=   None    Shift=    0.000
 GapD=    0.305 DampG=1.000 DampE=0.500 DampFc=0.5000 IDamp=-1.
 Damping current iteration by 5.00D-01
 RMSDP=3.48D-03 MaxDP=3.77D-01              OVMax= 1.74D-01

 Cycle   2  Pass 1  IDiag  1:
 RMSU=  1.72D-03    CP:  9.81D-01
 E= -1494.23327176718     Delta-E=       -0.319523930500 Rises=F Damp=T
 DIIS: error= 4.87D-03 at cycle   2 NSaved=   2.
 NSaved= 2 IEnMin= 2 EnMin= -1494.23327176718     IErMin= 2 ErrMin= 4.87D-03
 ErrMax= 4.87D-03  0.00D+00 EMaxC= 1.00D-01 BMatC= 5.56D-02 BMatP= 6.63D-01
 IDIUse=3 WtCom= 9.51D-01 WtEn= 4.87D-02
 Coeff-Com: -0.885D-01 0.109D+01
 Coeff-En:   0.000D+00 0.100D+01
 Coeff:     -0.842D-01 0.108D+01
 Gap=     0.277 Goal=   None    Shift=    0.000
 RMSDP=9.81D-04 MaxDP=7.68D-02 DE=-3.20D-01 OVMax= 9.39D-02

 Cycle   3  Pass 1  IDiag  1:
 RMSU=  9.49D-04    CP:  9.66D-01  1.06D+00
 E= -1494.51983859576     Delta-E=       -0.286566828579 Rises=F Damp=F
 DIIS: error= 9.47D-03 at cycle   3 NSaved=   3.
 NSaved= 3 IEnMin= 3 EnMin= -1494.51983859576     IErMin= 2 ErrMin= 4.87D-03
 ErrMax= 9.47D-03  0.00D+00 EMaxC= 1.00D-01 BMatC= 2.89D-02 BMatP= 5.56D-02
 IDIUse=3 WtCom= 9.05D-01 WtEn= 9.47D-02
 Coeff-Com: -0.101D+00 0.479D+00 0.622D+00
 Coeff-En:   0.000D+00 0.000D+00 0.100D+01
 Coeff:     -0.912D-01 0.433D+00 0.658D+00
 Gap=     0.246 Goal=   None    Shift=    0.000
 RMSDP=4.65D-04 MaxDP=3.05D-02 DE=-2.87D-01 OVMax= 3.84D-02

 Cycle   4  Pass 1  IDiag  1:
 RMSU=  3.20D-04    CP:  9.69D-01  1.15D+00  6.92D-01
 E= -1494.53916100032     Delta-E=       -0.019322404565 Rises=F Damp=F
 DIIS: error= 5.77D-03 at cycle   4 NSaved=   4.
 NSaved= 4 IEnMin= 4 EnMin= -1494.53916100032     IErMin= 2 ErrMin= 4.87D-03
 ErrMax= 5.77D-03  0.00D+00 EMaxC= 1.00D-01 BMatC= 6.70D-03 BMatP= 2.89D-02
 IDIUse=3 WtCom= 9.42D-01 WtEn= 5.77D-02
 Coeff-Com: -0.289D-01 0.877D-01 0.354D+00 0.588D+00
 Coeff-En:   0.000D+00 0.000D+00 0.183D+00 0.817D+00
 Coeff:     -0.272D-01 0.826D-01 0.344D+00 0.601D+00
 Gap=     0.245 Goal=   None    Shift=    0.000
 RMSDP=1.84D-04 MaxDP=1.22D-02 DE=-1.93D-02 OVMax= 1.92D-02

 Cycle   5  Pass 1  IDiag  1:
 RMSU=  7.76D-05    CP:  9.68D-01  1.12D+00  7.97D-01  6.11D-01
 E= -1494.54466734032     Delta-E=       -0.005506340002 Rises=F Damp=F
 DIIS: error= 1.29D-03 at cycle   5 NSaved=   5.
 NSaved= 5 IEnMin= 5 EnMin= -1494.54466734032     IErMin= 5 ErrMin= 1.29D-03
 ErrMax= 1.29D-03  0.00D+00 EMaxC= 1.00D-01 BMatC= 2.55D-04 BMatP= 6.70D-03
 IDIUse=3 WtCom= 9.87D-01 WtEn= 1.29D-02
 Coeff-Com: -0.689D-02 0.118D-01 0.121D+00 0.274D+00 0.600D+00
 Coeff-En:   0.000D+00 0.000D+00 0.000D+00 0.000D+00 0.100D+01
 Coeff:     -0.680D-02 0.117D-01 0.119D+00 0.270D+00 0.606D+00
 Gap=     0.241 Goal=   None    Shift=    0.000
 RMSDP=3.58D-05 MaxDP=2.99D-03 DE=-5.51D-03 OVMax= 4.64D-03

 Cycle   6  Pass 1  IDiag  1:
 RMSU=  2.45D-05    CP:  9.68D-01  1.13D+00  7.98D-01  6.53D-01  7.15D-01
 E= -1494.54487552000     Delta-E=       -0.000208179678 Rises=F Damp=F
 DIIS: error= 2.30D-04 at cycle   6 NSaved=   6.
 NSaved= 6 IEnMin= 6 EnMin= -1494.54487552000     IErMin= 6 ErrMin= 2.30D-04
 ErrMax= 2.30D-04  0.00D+00 EMaxC= 1.00D-01 BMatC= 1.73D-05 BMatP= 2.55D-04
 IDIUse=3 WtCom= 9.98D-01 WtEn= 2.30D-03
 Coeff-Com: -0.600D-03-0.170D-02 0.237D-01 0.655D-01 0.260D+00 0.653D+00
 Coeff-En:   0.000D+00 0.000D+00 0.000D+00 0.000D+00 0.000D+00 0.100D+01
 Coeff:     -0.599D-03-0.170D-02 0.237D-01 0.653D-01 0.259D+00 0.654D+00
 Gap=     0.241 Goal=   None    Shift=    0.000
 RMSDP=1.02D-05 MaxDP=6.41D-04 DE=-2.08D-04 OVMax= 9.76D-04

 Cycle   7  Pass 1  IDiag  1:
 RMSU=  7.87D-06    CP:  9.68D-01  1.13D+00  8.01D-01  6.56D-01  7.67D-01
                    CP:  8.38D-01
 E= -1494.54489127231     Delta-E=       -0.000015752304 Rises=F Damp=F
 DIIS: error= 3.35D-05 at cycle   7 NSaved=   7.
 NSaved= 7 IEnMin= 7 EnMin= -1494.54489127231     IErMin= 7 ErrMin= 3.35D-05
 ErrMax= 3.35D-05  0.00D+00 EMaxC= 1.00D-01 BMatC= 1.31D-06 BMatP= 1.73D-05
 IDIUse=1 WtCom= 1.00D+00 WtEn= 0.00D+00
 Coeff-Com:  0.538D-03-0.191D-02-0.290D-02-0.467D-02 0.346D-01 0.228D+00
 Coeff-Com:  0.747D+00
 Coeff:      0.538D-03-0.191D-02-0.290D-02-0.467D-02 0.346D-01 0.228D+00
 Coeff:      0.747D+00
 Gap=     0.241 Goal=   None    Shift=    0.000
 RMSDP=3.78D-06 MaxDP=2.69D-04 DE=-1.58D-05 OVMax= 2.96D-04

 Cycle   8  Pass 1  IDiag  1:
 RMSU=  2.77D-06    CP:  9.68D-01  1.12D+00  8.02D-01  6.56D-01  7.81D-01
                    CP:  9.07D-01  9.58D-01
 E= -1494.54489273673     Delta-E=       -0.000001464418 Rises=F Damp=F
 DIIS: error= 1.58D-05 at cycle   8 NSaved=   8.
 NSaved= 8 IEnMin= 8 EnMin= -1494.54489273673     IErMin= 8 ErrMin= 1.58D-05
 ErrMax= 1.58D-05  0.00D+00 EMaxC= 1.00D-01 BMatC= 2.43D-07 BMatP= 1.31D-06
 IDIUse=1 WtCom= 1.00D+00 WtEn= 0.00D+00
 Coeff-Com:  0.374D-03-0.645D-03-0.471D-02-0.127D-01-0.256D-01-0.663D-02
 Coeff-Com:  0.318D+00 0.732D+00
 Coeff:      0.374D-03-0.645D-03-0.471D-02-0.127D-01-0.256D-01-0.663D-02
 Coeff:      0.318D+00 0.732D+00
 Gap=     0.241 Goal=   None    Shift=    0.000
 RMSDP=1.84D-06 MaxDP=1.55D-04 DE=-1.46D-06 OVMax= 1.99D-04

 Cycle   9  Pass 1  IDiag  1:
 RMSU=  1.15D-06    CP:  9.68D-01  1.12D+00  8.03D-01  6.57D-01  7.87D-01
                    CP:  9.29D-01  1.07D+00  8.47D-01
 E= -1494.54489301251     Delta-E=       -0.000000275788 Rises=F Damp=F
 DIIS: error= 5.23D-06 at cycle   9 NSaved=   9.
 NSaved= 9 IEnMin= 9 EnMin= -1494.54489301251     IErMin= 9 ErrMin= 5.23D-06
 ErrMax= 5.23D-06  0.00D+00 EMaxC= 1.00D-01 BMatC= 3.36D-08 BMatP= 2.43D-07
 IDIUse=1 WtCom= 1.00D+00 WtEn= 0.00D+00
 Coeff-Com:  0.144D-03-0.180D-03-0.191D-02-0.570D-02-0.148D-01-0.234D-01
 Coeff-Com:  0.794D-01 0.347D+00 0.620D+00
 Coeff:      0.144D-03-0.180D-03-0.191D-02-0.570D-02-0.148D-01-0.234D-01
 Coeff:      0.794D-01 0.347D+00 0.620D+00
 Gap=     0.241 Goal=   None    Shift=    0.000
 RMSDP=6.18D-07 MaxDP=3.78D-05 DE=-2.76D-07 OVMax= 5.13D-05

 Cycle  10  Pass 1  IDiag  1:
 RMSU=  4.21D-07    CP:  9.68D-01  1.12D+00  8.03D-01  6.56D-01  7.88D-01
                    CP:  9.35D-01  1.08D+00  9.40D-01  8.28D-01
 E= -1494.54489305193     Delta-E=       -0.000000039414 Rises=F Damp=F
 DIIS: error= 1.67D-06 at cycle  10 NSaved=  10.
 NSaved=10 IEnMin=10 EnMin= -1494.54489305193     IErMin=10 ErrMin= 1.67D-06
 ErrMax= 1.67D-06  0.00D+00 EMaxC= 1.00D-01 BMatC= 3.17D-09 BMatP= 3.36D-08
 IDIUse=1 WtCom= 1.00D+00 WtEn= 0.00D+00
 Coeff-Com: -0.819D-05 0.412D-04 0.191D-03 0.125D-03-0.824D-03-0.717D-02
 Coeff-Com: -0.271D-01 0.212D-02 0.217D+00 0.816D+00
 Coeff:     -0.819D-05 0.412D-04 0.191D-03 0.125D-03-0.824D-03-0.717D-02
 Coeff:     -0.271D-01 0.212D-02 0.217D+00 0.816D+00
 Gap=     0.241 Goal=   None    Shift=    0.000
 RMSDP=2.53D-07 MaxDP=2.17D-05 DE=-3.94D-08 OVMax= 4.13D-05

 Cycle  11  Pass 1  IDiag  1:
 RMSU=  1.40D-07    CP:  9.68D-01  1.12D+00  8.03D-01  6.56D-01  7.89D-01
                    CP:  9.36D-01  1.09D+00  9.64D-01  9.60D-01  9.66D-01
 E= -1494.54489305746     Delta-E=       -0.000000005528 Rises=F Damp=F
 DIIS: error= 6.83D-07 at cycle  11 NSaved=  11.
 NSaved=11 IEnMin=11 EnMin= -1494.54489305746     IErMin=11 ErrMin= 6.83D-07
 ErrMax= 6.83D-07  0.00D+00 EMaxC= 1.00D-01 BMatC= 7.41D-10 BMatP= 3.17D-09
 IDIUse=1 WtCom= 1.00D+00 WtEn= 0.00D+00
 Coeff-Com: -0.208D-04 0.394D-04 0.341D-03 0.774D-03 0.151D-02-0.383D-03
 Coeff-Com: -0.223D-01-0.417D-01 0.113D-01 0.388D+00 0.662D+00
 Coeff:     -0.208D-04 0.394D-04 0.341D-03 0.774D-03 0.151D-02-0.383D-03
 Coeff:     -0.223D-01-0.417D-01 0.113D-01 0.388D+00 0.662D+00
 Gap=     0.241 Goal=   None    Shift=    0.000
 RMSDP=9.15D-08 MaxDP=5.23D-06 DE=-5.53D-09 OVMax= 1.10D-05

 Cycle  12  Pass 1  IDiag  1:
 RMSU=  5.58D-08    CP:  9.68D-01  1.12D+00  8.03D-01  6.56D-01  7.89D-01
                    CP:  9.37D-01  1.10D+00  9.75D-01  9.75D-01  1.09D+00
                    CP:  9.48D-01
 E= -1494.54489305853     Delta-E=       -0.000000001071 Rises=F Damp=F
 DIIS: error= 2.04D-07 at cycle  12 NSaved=  12.
 NSaved=12 IEnMin=12 EnMin= -1494.54489305853     IErMin=12 ErrMin= 2.04D-07
 ErrMax= 2.04D-07  0.00D+00 EMaxC= 1.00D-01 BMatC= 6.24D-11 BMatP= 7.41D-10
 IDIUse=1 WtCom= 1.00D+00 WtEn= 0.00D+00
 Coeff-Com: -0.621D-05 0.784D-05 0.943D-04 0.256D-03 0.669D-03 0.855D-03
 Coeff-Com: -0.387D-02-0.153D-01-0.365D-01 0.216D-01 0.230D+00 0.802D+00
 Coeff:     -0.621D-05 0.784D-05 0.943D-04 0.256D-03 0.669D-03 0.855D-03
 Coeff:     -0.387D-02-0.153D-01-0.365D-01 0.216D-01 0.230D+00 0.802D+00
 Gap=     0.241 Goal=   None    Shift=    0.000
 RMSDP=3.48D-08 MaxDP=1.63D-06 DE=-1.07D-09 OVMax= 7.20D-06

 Cycle  13  Pass 1  IDiag  1:
 RMSU=  1.96D-08    CP:  9.68D-01  1.12D+00  8.03D-01  6.56D-01  7.89D-01
                    CP:  9.37D-01  1.10D+00  9.78D-01  9.84D-01  1.13D+00
                    CP:  1.08D+00  9.94D-01
 E= -1494.54489305866     Delta-E=       -0.000000000130 Rises=F Damp=F
 DIIS: error= 8.71D-08 at cycle  13 NSaved=  13.
 NSaved=13 IEnMin=13 EnMin= -1494.54489305866     IErMin=13 ErrMin= 8.71D-08
 ErrMax= 8.71D-08  0.00D+00 EMaxC= 1.00D-01 BMatC= 9.38D-12 BMatP= 6.24D-11
 IDIUse=1 WtCom= 1.00D+00 WtEn= 0.00D+00
 Coeff-Com: -0.505D-07-0.120D-05-0.447D-05 0.650D-05 0.736D-04 0.302D-03
 Coeff-Com:  0.111D-02-0.366D-03-0.152D-01-0.296D-01-0.508D-02 0.275D+00
 Coeff-Com:  0.774D+00
 Coeff:     -0.505D-07-0.120D-05-0.447D-05 0.650D-05 0.736D-04 0.302D-03
 Coeff:      0.111D-02-0.366D-03-0.152D-01-0.296D-01-0.508D-02 0.275D+00
 Coeff:      0.774D+00
 Gap=     0.241 Goal=   None    Shift=    0.000
 RMSDP=1.26D-08 MaxDP=5.25D-07 DE=-1.30D-10 OVMax= 2.33D-06

 Cycle  14  Pass 1  IDiag  1:
 RMSU=  6.63D-09    CP:  9.68D-01  1.12D+00  8.03D-01  6.56D-01  7.89D-01
                    CP:  9.37D-01  1.10D+00  9.79D-01  9.84D-01  1.15D+00
                    CP:  1.13D+00  1.10D+00  1.10D+00
 E= -1494.54489305870     Delta-E=       -0.000000000046 Rises=F Damp=F
 DIIS: error= 4.24D-08 at cycle  14 NSaved=  14.
 NSaved=14 IEnMin=14 EnMin= -1494.54489305870     IErMin=14 ErrMin= 4.24D-08
 ErrMax= 4.24D-08  0.00D+00 EMaxC= 1.00D-01 BMatC= 1.50D-12 BMatP= 9.38D-12
 IDIUse=1 WtCom= 1.00D+00 WtEn= 0.00D+00
 Coeff-Com:  0.117D-05-0.183D-05-0.226D-04-0.530D-04-0.118D-03-0.948D-04
 Coeff-Com:  0.126D-02 0.328D-02 0.124D-02-0.136D-01-0.553D-01-0.536D-01
 Coeff-Com:  0.285D+00 0.832D+00
 Coeff:      0.117D-05-0.183D-05-0.226D-04-0.530D-04-0.118D-03-0.948D-04
 Coeff:      0.126D-02 0.328D-02 0.124D-02-0.136D-01-0.553D-01-0.536D-01
 Coeff:      0.285D+00 0.832D+00
 Gap=     0.241 Goal=   None    Shift=    0.000
 RMSDP=6.18D-09 MaxDP=3.15D-07 DE=-4.59D-11 OVMax= 1.29D-06

 Error on total polarization charges =  0.04316
 SCF Done:  E(RM062X) =  -1494.54489306     A.U. after   14 cycles
            NFock= 14  Conv=0.62D-08     -V/T= 2.0100
 KE= 1.479799867399D+03 PE=-1.069033372152D+04 EE= 4.109609380191D+03
 SMD-CDS (non-electrostatic) energy       (kcal/mol) =      -8.75
 (included in total energy above)
 Leave Link  502 at Fri Feb 28 18:51:30 2025, MaxMem=  4026531840 cpu:            1595.8 elap:             100.7
 (Enter /ihome/crc/install/gaussian/c01/avx2/tar/g16/l508.exe)
 QCSCF skips out because SCF is already converged.
 Leave Link  508 at Fri Feb 28 18:51:30 2025, MaxMem=  4026531840 cpu:               0.0 elap:               0.0
 (Enter /ihome/crc/install/gaussian/c01/avx2/tar/g16/l801.exe)
 DoSCS=F DFT=T ScalE2(SS,OS)=  1.000000  1.000000
 Range of M.O.s used for correlation:     1   592
 NBasis=   592 NAE=   118 NBE=   118 NFC=     0 NFV=     0
 NROrb=    592 NOA=   118 NOB=   118 NVA=   474 NVB=   474
 Leave Link  801 at Fri Feb 28 18:51:30 2025, MaxMem=  4026531840 cpu:               0.2 elap:               0.0
 (Enter /ihome/crc/install/gaussian/c01/avx2/tar/g16/l1101.exe)
 Using compressed storage, NAtomX=    59.
 Will process     60 centers per pass.
   1 Symmetry operations used in ECPInt.
 ECPInt:  NShTT=   38226 NPrTT=  139108 LenC2=   33866 LenP2D=   81433.
 LDataN:  DoStor=T MaxTD1= 5 Len=  102
 Number of processors reduced to  10 by ecpmxn.
 R6Disp: Adding Grimme-D3 dispersion energy 1st derivatives to the gradient.
 Leave Link 1101 at Fri Feb 28 18:51:31 2025, MaxMem=  4026531840 cpu:              12.7 elap:               0.9
 (Enter /ihome/crc/install/gaussian/c01/avx2/tar/g16/l1102.exe)
 Symmetrizing basis deriv contribution to polar:
 IMax=3 JMax=2 DiffMx= 0.00D+00
 Leave Link 1102 at Fri Feb 28 18:51:31 2025, MaxMem=  4026531840 cpu:               0.5 elap:               0.1
 (Enter /ihome/crc/install/gaussian/c01/avx2/tar/g16/l1110.exe)
 Forming Gx(P) for the SCF density, NAtomX=    59.
 Integral derivatives from FoFJK, PRISM(SPDF).
 Do as many integral derivatives as possible in FoFJK.
 G2DrvN: MDV=    4026525627.
 G2DrvN: will do    60 centers at a time, making    1 passes.
 Calling FoFCou, ICntrl=  3107 FMM=F I1Cent=   0 AccDes= 0.00D+00.
 FoFJK:  IHMeth= 1 ICntrl=    3107 DoSepK=F KAlg= 0 I1Cent=           0 FoldK=F
 IRaf=         0 NMat=       1 IRICut=       1 DoRegI=T DoRafI=F ISym2E= 0 IDoP0=0 IntGTp=1.
 FoFCou: FMM=F IPFlag=           0 FMFlag=      100000 FMFlg1=           0
         NFxFlg=           0 DoJE=F BraDBF=F KetDBF=F FulRan=T
         wScrn=  0.000000 ICntrl=      3107 IOpCl=  0 I1Cent=           0 NGrid=           0
         NMat0=    1 NMatS0=      1 NMatT0=    0 NMatD0=    1 NMtDS0=    0 NMtDT0=    0
 Symmetry not used in FoFCou.
 NEqPCM:  Using equilibrium solvation (IEInf=0, Eps=   5.5205, EpsInf=   1.9160)
 G2PCM: DoFxE=T DoFxN=T DoGrad=T DoDP/DQ/DG/TGxP=FFFF NFrqRd=   0 IEInf=0 SqF1=F DoCFld=F IF1Alg=4.
 GePol: Maximum number of non-zero 1st derivatives   =     355
 End of G2Drv F.D. properties file   721 does not exist.
 End of G2Drv F.D. properties file   722 does not exist.
 End of G2Drv F.D. properties file   788 does not exist.
 Leave Link 1110 at Fri Feb 28 18:56:10 2025, MaxMem=  4026531840 cpu:            4469.0 elap:             279.4
 (Enter /ihome/crc/install/gaussian/c01/avx2/tar/g16/l1002.exe)
 Minotr:  Closed shell wavefunction.
          IDoAtm=11111111111111111111111111111111111111111111111111
          IDoAtm=111111111
 NEqPCM:  Using equilibrium solvation (IEInf=0, Eps=   5.5205, EpsInf=   1.9160)
          Direct CPHF calculation.
          Differentiating once with respect to nuclear coordinates.
          Requested convergence is 1.0D-08 RMS, and 1.0D-07 maximum.
          Secondary convergence is 1.0D-12 RMS, and 1.0D-12 maximum.
          NewPWx=T KeepS1=F KeepF1=F KeepIn=T MapXYZ=F SortEE=F KeepMc=T.
        17842 words used for storage of precomputed grid.
 Two-electron integral symmetry not used.
          MDV=    4026531840 using IRadAn=       1.
          Solving linear equations simultaneously, MaxMat=     384.
 FoF2E skips out because all densities are zero.
 CalDSu exits because no D1Ps are significant.
 FoFJK:  IHMeth= 1 ICntrl=       0 DoSepK=F KAlg= 0 I1Cent=           0 FoldK=F
 IRaf= 770000000 NMat=     177 IRICut=     442 DoRegI=T DoRafI=T ISym2E= 0 IDoP0=3 IntGTp=3.
          There are   180 degrees of freedom in the 1st order CPHF.  IDoFFX=6 NUNeed=     0.
    174 vectors produced by pass  0 Test12= 5.59D-14 1.00D-09 XBig12= 1.24D-01 1.13D-01.
 AX will form   174 AO Fock derivatives at one time.
    174 vectors produced by pass  1 Test12= 5.59D-14 1.00D-09 XBig12= 2.15D-02 3.33D-02.
    174 vectors produced by pass  2 Test12= 5.59D-14 1.00D-09 XBig12= 5.06D-04 2.87D-03.
    174 vectors produced by pass  3 Test12= 5.59D-14 1.00D-09 XBig12= 5.25D-06 2.38D-04.
    174 vectors produced by pass  4 Test12= 5.59D-14 1.00D-09 XBig12= 3.54D-08 1.68D-05.
[...]
 .00001413,-0.00005242,-0.00000090,-0.00001376,0.00000397,-0.00000721,-
 0.00006082,0.00000328,-0.00002351,0.00000713,0.00001016,0.00001211,0.0
 0000310,-0.00001953,-0.00004748,-0.00005284,-0.00008281,-0.00006755,0.
 00001058,0.00002730,-0.00004049,-0.00000649,0.00001712,-0.00003819,-0.
 00000584,0.00002269,-0.00002489,-0.00001924,0.01109079,-0.01960910,-0.
 00061714,-0.04676260,-0.00151593,0.03067272,-0.09609454,0.05183588,0.0
 1227325,-0.00253858,-0.00249359,-0.00201251,0.00168007,0.00028149,0.00
 149176,-0.17064593,-0.01825555,0.07482938,-0.00348504,-0.00668117,-0.0
 0522977,0.00300562,0.00146696,0.00016814,-0.00281124,0.01876707,0.0011
 3392,-0.00896068,0.03591634,0.00414898,-0.00498150,-0.00227092,0.01381
 615,-0.01572743,0.00204031,0.01166387,0.00369546,0.00476793,0.00130771
 ,0.33259282,-0.00003560,0.00017673,0.00000255,0.00001487,-0.00017360,-
 0.00014448,-0.00003950,-0.00000234,0.00000064,-0.00003009,0.00001095,0
 .00000659,-0.00000595,-0.00006223,-0.00004347,-0.00001775,0.00008059,0
 .00005472,-0.00010760,0.00023836,0.00018396,-0.00001968,0.00002313,0.0
 0000339,-0.00000139,0.00000013,-0.00000222,0.00000608,0.00000967,0.000
 00409,-0.00001321,-0.00000105,-0.00000268,0.00013141,-0.00000040,-0.00
 017190,-0.00028158,-0.00001259,0.00011659,0.00007294,0.00040996,-0.000
 08486,0.00020694,-0.00078445,-0.00021957,0.00002217,0.00100003,0.00070
 437,-0.00062542,-0.00012869,0.00038563,-0.00025217,0.00037711,0.000069
 05,0.00002103,-0.00001355,-0.00000559,-0.00004158,-0.00003135,-0.00003
 981,-0.00000475,0.00001697,0.00000632,-0.00002877,0.00001127,-0.000001
 94,-0.00001631,0.00001196,0.00000554,-0.00000997,-0.00000239,0.0000108
 2,-0.00000671,-0.00000455,0.00000275,-0.00000704,-0.00000296,0.0000031
 6,0.00004373,-0.00000423,0.00001893,-0.00001400,-0.00000931,-0.0000150
 7,0.00001947,0.00000209,0.00000294,-0.00000814,0.00002402,0.00003683,-
 0.00000840,-0.00003187,-0.00003425,-0.00003323,-0.00001916,-0.00000241
 ,-0.00001683,0.00001337,0.00002206,0.00001985,0.00002202,-0.00001187,0
 .00001690,0.00000104,0.00001281,0.00000425,0.00001277,0.00004917,0.000
 00503,0.00002093,-0.00002387,0.00000582,-0.00001867,-0.00001003,-0.000
 02703,0.00002294,0.00002106,-0.00001669,-0.00002911,0.00001968,0.00000
 163,-0.00001783,-0.00001426,0.00001432,-0.00002136,0.00000768,-0.00000
 244,0.00001672,0.00001007,0.01034883,-0.04765039,-0.01088917,-0.016376
 05,0.00243102,0.01138269,0.02127806,-0.22048281,0.00150880,-0.00627567
 ,-0.00246541,-0.00262256,0.00032810,0.00223888,0.00038799,0.00992768,-
 0.09513957,-0.00508909,-0.00225080,-0.00087217,-0.00209890,0.00035377,
 0.00010311,0.00022682,0.01241369,-0.03414321,0.00203350,0.00559467,-0.
 00624602,-0.00244472,-0.00829053,0.00260243,0.00526469,0.03301335,0.00
 379112,-0.02254403,0.00514199,0.00410515,0.00117673,-0.06435312,0.3907
 0971,0.00015644,0.00014777,0.00034449,-0.00020754,-0.00013550,-0.00047
 311,0.00002022,-0.00001046,0.00002459,0.00000404,-0.00000364,0.0000040
 9,-0.00012177,-0.00005687,-0.00027519,0.00000552,0.00007364,0.00019047
 ,0.00028585,0.00010946,0.00034088,0.00000088,0.00000416,-0.00000670,-0
 .00000673,-0.00000340,0.00000430,0.00000445,0.00000289,0.00000437,0.00
 000968,-0.00000392,0.00000696,-0.00006105,-0.00013442,-0.00003997,-0.0
 0018932,0.00004331,0.00007712,0.00002436,0.00019376,-0.00002255,0.0001
 7501,-0.00059549,-0.00000305,-0.00004365,0.00105311,-0.00015115,-0.000
 33861,-0.00010117,0.00035644,-0.00023169,0.00020008,-0.00002560,0.0000
 4278,-0.00001382,0.00001492,-0.00010814,-0.00002207,-0.00006573,0.0000
 5346,0.00001430,0.00003558,-0.00000496,0.00001752,0.00003392,-0.000018
 84,-0.00001055,-0.00001817,-0.00001291,0.00000128,0.00000737,0.0000034
 0,-0.00000209,0.00000037,-0.00000089,0.00000167,0.00000085,0.00001444,
 -0.00003793,-0.00007874,-0.00005617,-0.00002449,-0.00003267,-0.0000071
 4,0.00004048,-0.00002278,-0.00001095,-0.00000555,0.00001412,0.00004257
 ,0.00001345,-0.00005884,-0.00004819,-0.00000714,0.00000111,0.00003269,
 -0.00002983,-0.00000601,0.00000331,0.00001826,0.00000300,0.00008846,0.
 00002428,-0.00000847,-0.00002841,0.00002920,0.00008471,-0.00001047,0.0
 0000173,0.00000947,-0.00000473,-0.00002086,0.00004658,-0.00000808,0.00
 004414,0.00008833,0.00000767,0.00000099,0.00003506,0.00000552,0.000001
 82,-0.00000603,-0.00000831,-0.00002341,0.00000484,-0.00000877,0.000011
 07,-0.00001323,0.00865795,-0.02561320,0.00000566,0.00015595,0.00182614
 ,0.00988469,0.01829788,-0.01741692,-0.07951891,-0.00444817,-0.00307136
 ,-0.00044594,0.00252962,0.00141478,0.00192691,0.07186545,0.01848967,-0
 .12320268,-0.00188499,-0.00157627,0.00015726,0.00117470,0.00110452,0.0
 0235805,-0.00689652,0.02580017,0.00941736,0.00702831,-0.02458829,-0.00
 203295,0.03893198,0.00126535,-0.02538303,0.00796821,-0.00132051,-0.004
 65690,0.00095614,0.00038342,-0.00031558,-0.14367186,0.02266548,0.21143
 073,-0.00003253,-0.00000046,-0.00004151,0.00004254,-0.00000852,0.00003
 469,-0.00000583,0.00000115,-0.00000333,-0.00000519,0.00000179,0.000000
 99,0.00003004,0.00001189,0.00003635,-0.00001111,-0.00001231,-0.0000202
 2,-0.00005051,0.00002419,-0.00000650,-0.00000122,-0.00000049,0.0000001
 3,-0.00000033,0.00000123,0.00000182,-0.00000413,0.00000150,-0.00000023
 ,-0.00000098,-0.00000065,-0.00000049,0.00854104,0.00932196,-0.00351652
 ,-0.16085290,-0.13928042,0.05405043,-0.01054669,-0.02013743,0.00513116
 ,-0.00283294,0.00230225,0.00314436,-0.00107007,0.00076988,0.00023510,0
 .00149562,0.00308604,0.00258226,-0.00045304,-0.00096693,0.00024621,-0.
 00042078,0.00033019,-0.00166116,0.00035333,-0.00020748,-0.00002697,-0.
 00008238,-0.00006956,-0.00009454,-0.00005295,-0.00014235,0.00001537,-0
 .00001123,0.00001585,0.00003751,0.00002220,-0.00000804,-0.00000387,0.0
 0000518,0.00001232,-0.00000728,-0.00001094,0.00002054,-0.00000762,-0.0
 0017183,0.00029498,0.00023014,0.00010988,0.00010048,0.00004479,-0.0000
 0884,0.00000299,-0.00003346,-0.00008187,-0.00009317,0.00004728,0.00000
 963,0.00000756,0.00001344,0.00000216,0.00000676,0.00000203,-0.00001528
 ,0.00002869,0.00001198,0.00003594,0.00000596,-0.00009559,0.00000218,0.
 00001214,-0.00000610,-0.00000229,0.00000172,0.00000340,-0.00001203,-0.
 00000638,-0.00000726,0.00000477,0.00000497,-0.00000037,0.00011806,-0.0
 0010217,-0.00013160,0.00097332,-0.00111438,-0.00116070,-0.00016752,0.0
 0007259,0.00011688,-0.00022783,0.00044517,-0.00017243,0.00015252,0.000
 01951,-0.00017413,-0.00011604,0.00006311,-0.00001897,0.00001603,0.0000
 2760,0.00002515,0.00001711,0.00003545,0.00002319,0.00005159,-0.0000402
 7,-0.00004219,0.00003375,-0.00005118,-0.00001845,-0.00000721,-0.000024
 84,-0.00001856,-0.00000123,-0.00002115,-0.00001614,-0.00002330,-0.0000
 0002,0.00001054,-0.00000268,-0.00000024,-0.00000160,-0.00000090,-0.000
 00445,-0.00000106,0.00000093,0.00000177,-0.00000135,-0.00000235,-0.000
 00029,-0.00000121,0.00024321,0.00003802,-0.00019948,0.00002970,-0.0000
 2149,-0.00002367,0.16449980,0.00016019,-0.00004286,0.00016201,-0.00009
 160,0.00006631,-0.00000420,0.00002712,-0.00000495,0.00000673,0.0000277
 7,-0.00000760,-0.00000366,-0.00007484,-0.00005110,-0.00011290,0.000025
 25,0.00002589,0.00004962,0.00009536,-0.00008861,-0.00005004,0.00000225
 ,0.00000019,-0.00000155,0.00000777,-0.00000556,-0.00000558,0.00001082,
 -0.00000251,0.00000132,0.00000481,-0.00000026,-0.00000008,-0.01784686,
 -0.01412584,0.00737403,-0.13731574,-0.22680907,0.05634660,0.00561998,0
 .00874656,-0.00243680,0.00195016,0.00012754,-0.00072671,0.00066482,-0.
 00013215,-0.00024631,0.00320289,-0.00418914,-0.00103895,0.00028661,0.0
 0045647,-0.00005659,-0.00069814,0.00080171,0.00065067,0.00010922,-0.00
 008005,-0.00023188,-0.00014617,-0.00002378,-0.00000093,0.00010474,-0.0
 0001968,0.00005949,-0.00000620,0.00004812,0.00009088,-0.00000146,-0.00
 000109,0.00000944,-0.00000213,0.00000745,0.00000388,0.00000445,-0.0000
 1085,-0.00000468,0.00024698,-0.00041084,-0.00039794,0.00000906,0.00002
 893,0.00001073,0.00002256,0.00000100,-0.00000186,-0.00001204,-0.000098
 58,0.00000558,0.00000700,0.00001221,0.00000807,-0.00000400,0.00000188,
 0.00000847,0.00000147,0.00004931,0.00000959,-0.00004521,0.00001691,-0.
 00010654,0.00001920,-0.00000003,0.00001220,0.00000218,0.00000256,0.000
 00432,0.00000257,-0.00000290,0.00000385,0.00000430,0.00000627,0.000002
 13,-0.00003129,0.00017935,0.00017461,0.00019714,0.00052842,0.00002548,
 -0.00024486,0.00019740,-0.00015723,0.00000423,0.00019096,0.00021635,-0
 .00006000,-0.00003403,0.00000357,0.00000884,-0.00001433,-0.00004520,0.
 00002085,-0.00005284,-0.00005238,-0.00001121,-0.00002035,0.00000269,-0
 .00000999,0.00000903,0.00001163,0.00000073,0.00000620,-0.00000481,0.00
 000972,0.00003025,0.00003381,-0.00001312,0.00002661,0.00004197,-0.0000
 0651,0.00000927,0.00000184,0.00000042,0.00000199,-0.00000045,-0.000002
 43,0.00000032,-0.00000184,-0.00000398,-0.00000103,-0.00000364,0.000000
 65,-0.00000041,-0.00000038,-0.00000151,0.00019450,0.00006587,-0.000036
 30,0.00000111,0.00000535,0.14496754,0.23446833,0.00009098,-0.00005557,
 0.00002373,-0.00001929,0.00005940,0.00008688,0.00001025,-0.00000706,-0
 .00000062,0.00001722,-0.00000457,-0.00000226,-0.00000198,0.00002018,0.
 00000842,0.00000609,-0.00003243,-0.00001853,-0.00002059,-0.00002340,-0
 .00007121,0.00000139,-0.00000224,-0.00000170,0.00000373,-0.00000191,-0
 .00000338,0.00000073,-0.00000004,0.00000067,0.00000220,-0.00000125,-0.
 00000102,-0.00322460,-0.00357752,0.00191156,0.05477847,0.05703331,-0.0
 5610630,0.00437349,0.00849834,-0.00012268,0.00293188,-0.00064993,0.003
 51673,0.00021604,-0.00079771,-0.00063233,0.00351267,-0.00181699,0.0068
 8680,0.00028519,0.00044241,0.00017500,-0.00257185,0.00031924,-0.003889
 43,0.00055266,-0.00046771,-0.00012008,-0.00015083,-0.00009119,-0.00023
 819,0.00000421,-0.00015897,-0.00013500,-0.00000317,0.00002442,0.000097
 31,0.00005192,-0.00000437,-0.00001455,0.00000682,0.00000408,-0.0000030
 7,-0.00003115,0.00002060,0.00000915,-0.00058170,0.00076877,0.00111347,
 0.00013484,0.00005559,0.00006292,0.00001906,0.00000947,-0.00004946,-0.
 00003438,-0.00017962,0.00011562,0.00000734,0.00000729,0.00001818,-0.00
 000110,0.00000662,0.00000654,-0.00002511,0.00007536,0.00001154,-0.0000
 0232,0.00005298,0.00000743,0.00001736,0.00001141,-0.00000456,-0.000004
 17,0.00000205,0.00000693,-0.00001119,-0.00000559,-0.00000128,0.0000064
 0,0.00000921,0.00000084,0.00036517,-0.00042451,-0.00036829,-0.00125397
 ,0.00041779,-0.00134707,-0.00009060,-0.00049029,-0.00025890,0.00012842
 ,0.00025060,-0.00017809,-0.00015054,0.00000131,-0.00014370,-0.00012091
 ,0.00000203,-0.00005985,0.00010744,-0.00000730,-0.00006147,-0.00007084
 ,0.00002144,0.00001162,-0.00002695,-0.00003685,0.00001159,0.00004245,-
 0.00006107,-0.00003007,-0.00000795,-0.00000425,-0.00003441,-0.00001374
 ,-0.00001394,0.00000377,-0.00004525,0.00004481,0.00003057,-0.00000044,
 0.00000020,-0.00000016,0.00000267,-0.00000394,-0.00000270,-0.00000260,
 -0.00000407,-0.00000011,0.00000300,0.00000914,0.00000499,-0.00010603,0
 .00044548,-0.00023377,0.00003447,0.00004592,0.00000403,-0.05873376,-0.
 05976316,0.04904957,0.00279873,-0.00125291,0.00906812,-0.00656908,0.00
 888166,0.00148533,0.00099297,0.00008562,-0.00022895,0.00153668,0.00011
 392,-0.00014811,-0.00479936,-0.00294765,-0.00715426,0.00112904,0.00127
 684,0.00367500,-0.00140600,-0.00341208,-0.00198148,0.00008152,-0.00013
 917,-0.00001802,0.00029092,-0.00013418,-0.00008798,0.00036999,-0.00014
 237,-0.00009203,0.00020441,-0.00013388,0.00009112,0.01683304,-0.019904
 40,-0.00211402,-0.00181045,-0.00603494,0.00169301,-0.00248758,-0.00016
 650,0.00097098,-0.00228499,0.00001158,0.00216711,-0.01142083,0.0222978
 1,-0.00012213,-0.12329024,0.12646017,0.01291485,0.00014929,0.00059162,
 0.00009899,-0.00040886,-0.00211264,-0.00049201,0.00011532,-0.00004080,
 0.00065488,-0.00009329,0.00027667,0.00000200,-0.00015352,0.00019894,-0
 .00027395,0.00003344,-0.00004380,0.00002394,-0.00001373,-0.00004224,0.
 00000791,0.00000087,-0.00002035,0.00000697,-0.00004056,-0.00002283,0.0
 0003375,-0.00064171,-0.00037795,0.00018970,0.00025459,0.00007267,0.000
 26304,-0.00004689,-0.00027318,-0.00001866,-0.00003655,-0.00005304,0.00
 005872,0.00002133,0.00004522,0.00003321,0.00003984,0.00004610,0.000299
 32,-0.00019156,0.00000138,-0.00003854,0.00003988,0.00005184,-0.0000719
 4,-0.00010525,0.00008567,-0.00002910,0.00000873,-0.00000729,-0.0000254
 0,-0.00000864,0.00000553,-0.00002902,-0.00000054,0.00001377,-0.0000179
 7,-0.00005700,0.00015342,0.00005049,-0.00008399,-0.00023811,-0.0001611
 0,0.00009572,-0.00010025,-0.00001237,0.00011020,-0.00003973,-0.0000536
 9,0.00008711,-0.00010634,-0.00002348,-0.00093573,-0.00000331,0.0008095
 6,-0.00114787,-0.00048693,0.00162199,-0.00009717,0.00020444,-0.0002739
 7,0.00016886,-0.00004047,-0.00008046,0.00023854,0.00008511,-0.00021444
 ,-0.00056539,-0.00057972,-0.00107005,-0.00064534,-0.00466237,-0.001219
 25,0.00030706,0.00028467,-0.00029030,-0.00001573,-0.00005805,0.0000412
 8,0.00013488,0.00007591,0.00001445,0.00005153,-0.00001511,0.00007732,0
 .00008854,0.00017919,0.00006579,0.00218225,0.00228358,-0.00091002,0.00
 106586,0.00023292,-0.00008441,0.00049639,-0.00116405,-0.00040758,0.129
 43035,-0.00436755,-0.00567903,-0.00961477,0.01262856,-0.00437850,0.006
 66303,-0.00127397,0.00035281,-0.00075418,-0.00127611,0.00059648,-0.000
 21256,0.00403967,0.00220511,0.00707720,-0.00104044,-0.00149630,-0.0035
 3263,-0.00662280,0.00414335,0.00137208,-0.00012405,0.00011431,-0.00000
 576,-0.00011968,0.00006704,0.00006496,-0.00029470,0.00000126,-0.000029
 91,-0.00030601,0.00014292,-0.00008834,0.00085343,-0.02651021,0.0030320
 5,-0.00449106,0.00357546,0.00306714,0.00256217,-0.00014010,-0.00134325
 ,-0.00223328,-0.00035903,0.00212986,0.01189515,0.01401694,-0.00536709,
 0.12123408,-0.31819296,0.01290096,-0.00033957,0.00080431,0.00023272,0.
 00072206,0.00064729,-0.00100586,0.00020713,0.00056026,0.00048002,0.000
 06628,-0.00025152,-0.00004279,0.00024691,-0.00023797,-0.00002325,0.000
 30164,-0.00009514,-0.00001601,0.00007393,-0.00002386,-0.00006011,0.000
 02751,0.00003631,-0.00002980,0.00008967,0.00000600,-0.00002132,-0.0007
 2356,-0.00026423,-0.00098959,0.00015252,0.00001699,0.00016060,-0.00013
 296,0.00034388,0.00012142,-0.00011023,-0.00002855,-0.00022074,-0.00015
 569,-0.00010839,-0.00005336,0.00002433,-0.00003124,-0.00046168,0.00020
 538,0.00001205,0.00006743,-0.00002852,-0.00007844,0.00008653,0.0000124
 8,-0.00012748,-0.00003148,-0.00002637,-0.00000974,-0.00002500,-0.00001
 039,-0.00000598,0.00002425,0.00000291,-0.00001494,0.00000437,0.0000879
 0,0.00015395,0.00050371,0.00028558,0.00063877,-0.00016989,-0.00024618,
 0.00016177,0.00006329,-0.00018440,0.00018231,0.00009045,-0.00008660,0.
 00010095,0.00002463,0.00128524,-0.00096306,-0.00064954,-0.00171706,0.0
 0200494,0.00198394,-0.00032300,0.00085928,0.00052296,0.00008760,0.0000
 3835,-0.00009666,-0.00042495,-0.00005727,0.00043702,0.00010136,-0.0009
 4109,-0.00078763,-0.00710293,-0.00561550,-0.00114316,0.00005653,-0.000
 64940,0.00017811,0.00005746,-0.00004056,-0.00000774,-0.00011634,-0.000
 21326,-0.00005768,0.00014093,0.00009308,0.00009605,-0.00019844,-0.0001
 3062,0.00001517,-0.00539819,-0.00594406,0.00031939,0.00100939,-0.00011
 402,-0.00017408,0.00027687,-0.00001261,0.00002798,-0.11925961,0.340838
 89,0.00446494,-0.00263285,0.00094401,0.00492934,0.00496329,0.01711478,
 0.00006954,-0.00061936,-0.00088090,0.00120046,-0.00014501,0.00015554,-
 0.00104667,-0.00223474,-0.00448883,0.00040790,0.00024885,0.00112372,-0
 .00736446,0.00438916,-0.00718314,0.00017251,-0.00018104,-0.00007874,0.
 00020508,-0.00013404,-0.00013543,0.00026547,-0.00018538,-0.00015544,0.
 00018810,-0.00016463,-0.00010307,-0.00480337,0.00483850,0.00056093,0.0
 0059001,0.00206753,0.00431342,0.00159200,0.00048408,-0.00158681,0.0049
 8354,-0.00064397,0.00277385,0.00411260,-0.01414062,0.00157207,0.011826
 04,0.01987679,-0.02905905,0.00016643,-0.00082346,-0.00000532,-0.000974
 59,0.00085660,-0.00265130,0.00079661,0.00048063,-0.00029947,0.00025749
 ,-0.00033672,-0.00000716,-0.00034909,0.00013100,-0.00009233,-0.0001836
 3,-0.00001585,-0.00012733,-0.00000496,0.00002756,0.00001586,-0.0000292
 9,0.00000881,-0.00000660,-0.00006026,-0.00000263,0.00002741,-0.0000366
 0,0.00022917,0.00153036,-0.00009463,-0.00000422,-0.00022160,-0.0000647
 5,-0.00018405,0.00000270,-0.00024320,0.00025807,0.00003689,-0.00022387
 ,-0.00007349,-0.00008946,0.00006517,-0.00006987,-0.00012738,0.00006088
 ,0.00008760,0.00009304,-0.00000059,-0.00000236,0.00000028,0.00010794,-
 0.00011048,0.00002197,0.00003074,0.00002247,0.00000414,0.00003780,-0.0
 0001276,0.00000931,0.00002230,-0.00000646,0.00001486,0.00000628,-0.000
 19030,-0.00079172,-0.00017856,0.00016233,-0.00039694,-0.00012836,-0.00
 012452,0.00001490,0.00001747,0.00005459,-0.00000006,-0.00001096,0.0000
 1795,0.00000329,-0.00014955,0.00005797,-0.00067776,0.00011870,0.000919
 71,0.00012728,-0.00015067,0.00010925,0.00021122,-0.00005441,-0.0000112
 9,0.00006902,0.00015070,0.00000927,-0.00003329,0.00033310,0.00004714,-
 0.00009165,-0.00119782,-0.00205318,0.00169388,0.00031262,0.00028235,-0
 .00020633,-0.00002189,0.00000177,-0.00002731,-0.00003044,-0.00005303,-
 0.00002511,-0.00009639,0.00000053,-0.00007811,-0.00006428,-0.00005186,
 0.00000658,-0.00157189,-0.00080963,-0.00136713,0.00011445,0.00006275,-
 0.00005462,0.00020313,0.00005353,0.00095839,-0.01867415,-0.01473144,0.
 01764973\\-0.00000437,-0.00000393,0.00000352,-0.00000303,-0.00000219,0
 .00000092,-0.00000474,-0.00000556,0.00000187,-0.00000370,-0.00000505,0
 .00000090,-0.00000157,-0.00000351,-0.00000103,-0.00000360,-0.00000852,
 0.00000303,-0.00000369,-0.00000221,0.00000160,-0.00000504,-0.00000483,
 0.00000025,-0.00000409,-0.00000461,0.00000144,-0.00000249,-0.00000695,
 0.00000137,-0.00000636,-0.00000631,0.00000190,0.00000282,-0.00000101,0
 .00000011,0.00000337,-0.00000009,-0.00000101,0.00000438,0.00000216,-0.
 00000096,0.00000359,0.00000323,-0.00000007,0.00000555,0.00000465,0.000
 00211,0.00000206,0.00000295,0.00000051,0.00000371,0.00000609,-0.000002
 05,0.00000214,-0.00000275,0.00000021,0.00000145,-0.00000167,0.00000054
 ,0.00000099,-0.00000438,0.00000072,0.00000136,-0.00000715,0.00000201,0
 .00000086,-0.00000642,0.00000139,0.00000048,-0.00000484,0.00000116,0.0
 0000040,-0.00000797,0.00000187,0.00000127,-0.00000797,0.00000203,0.000
 00179,-0.00000490,0.00000192,0.00000181,-0.00000187,0.00000022,-0.0000
 0047,-0.00000052,0.00000110,0.00000329,0.00000034,-0.00000041,-0.00000
 026,0.00000130,-0.00000046,-0.00000157,-0.00000183,0.00000067,0.000003
 51,0.00000196,-0.00000040,0.00000457,-0.00000016,-0.00000015,0.0000014
 9,0.00000259,-0.00000064,-0.00000170,0.00000171,-0.00000034,0.00000473
 ,0.00000293,-0.00000073,0.00000160,0.00000390,-0.00000096,0.00000315,0
 .00000111,-0.00000099,0.00000653,0.00000254,-0.00000049,0.00000666,0.0
 0000130,0.00000014,0.00000838,0.00000268,-0.00000048,0.00000626,0.0000
 0411,-0.00000158,-0.00000110,0.00000203,0.00000081,-0.00000096,0.00000
 462,0.00000060,-0.00000165,0.00000764,-0.00000268,-0.00000017,0.000004
 02,-0.00000159,-0.00000254,0.00000624,-0.00000063,-0.00000536,0.000006
 46,-0.00000116,-0.00000384,0.00000269,-0.00000001,-0.00000260,0.000002
 39,-0.00000060,-0.00000160,0.00000784,-0.00000172,-0.00000243,0.000008
 35,-0.00000186,-0.00000304,0.00000452,-0.00000113,-0.00000552,0.000004
 23,-0.00000035,-0.00000933,0.00000153,-0.00000626,-0.00000456,0.000004
 88,-0.00000111,0.00000568,-0.00000118,0.00000025,-0.00000250,-0.000004
 61,-0.00000328\\\@
 The archive entry for this job was punched.


 THOSE WHO ASPIRE NOT TO GUESS AND DIVINE,
 BUT TO DISCOVER AND KNOW, WHO PROPOSE NOT TO DEVISE 
 MIMIC AND FABULOUS WORLDS OF THEIR OWN, BUT TO 
 EXAMINE AND DISSECT THE NATURE OF THIS VERY WORLD 
 ITSELF, MUST GO TO THE FACTS THEMSELVES FOR EVERYTHING.

                               -- FRANCIS BACON, 1620
 Job cpu time:       0 days  4 hours 57 minutes 16.8 seconds.
 Elapsed time:       0 days  0 hours 18 minutes 36.5 seconds.
 File lengths (MBytes):  RWF=   2580 Int=      0 D2E=      0 Chk=     56 Scr=      1
 Normal termination of Gaussian 16 at Fri Feb 28 19:44:20 2025.
