 Entering Gaussian System, Link 0=g16
 Initial command:
 /opt/packages/gaussian/g16RevC.01/g16/l1.exe "/local/Gau-23451.inp" -scrdir="/local/"
 Entering Link 1 = /opt/packages/gaussian/g16RevC.01/g16/l1.exe PID=     23709.
  
 Copyright (c) 1988-2019, Gaussian, Inc.  All Rights Reserved.
  
 This is part of the Gaussian(R) 16 program.  It is based on
 the Gaussian(R) 09 system (copyright 2009, Gaussian, Inc.),
 the Gaussian(R) 03 system (copyright 2003, Gaussian, Inc.),
 the Gaussian(R) 98 system (copyright 1998, Gaussian, Inc.),
 the Gaussian(R) 94 system (copyright 1995, Gaussian, Inc.),
 the Gaussian 92(TM) system (copyright 1992, Gaussian, Inc.),
 the Gaussian 90(TM) system (copyright 1990, Gaussian, Inc.),
 the Gaussian 88(TM) system (copyright 1988, Gaussian, Inc.),
 the Gaussian 86(TM) system (copyright 1986, Carnegie Mellon
 University), and the Gaussian 82(TM) system (copyright 1983,
 Carnegie Mellon University). Gaussian is a federally registered
 trademark of Gaussian, Inc.
  
 This software contains proprietary and confidential information,
 including trade secrets, belonging to Gaussian, Inc.
  
 This software is provided under written license and may be
 used, copied, transmitted, or stored only in accord with that
 written license.
  
 The following legend is applicable only to US Government
 contracts under FAR:
  
                    RESTRICTED RIGHTS LEGEND
  
 Use, reproduction and disclosure by the US Government is
 subject to restrictions as set forth in subparagraphs (a)
 and (c) of the Commercial Computer Software - Restricted
 Rights clause in FAR 52.227-19.
  
 Gaussian, Inc.
 340 Quinnipiac St., Bldg. 40, Wallingford CT 06492
  
  
 ---------------------------------------------------------------
 Warning -- This program may not be used in any manner that
 competes with the business of Gaussian, Inc. or will provide
 assistance to any competitor of Gaussian, Inc.  The licensee
 of this program is prohibited from giving any competitor of
 Gaussian, Inc. access to this program.  By using this program,
 the user acknowledges that Gaussian, Inc. is engaged in the
 business of creating and licensing software in the field of
 computational chemistry and represents and warrants to the
 licensee that it is not a competitor of Gaussian, Inc. and that
 it will not use this program in any manner prohibited above.
 ---------------------------------------------------------------
  

 Cite this work as:
 Gaussian 16, Revision C.01,
 M. J. Frisch, G. W. Trucks, H. B. Schlegel, G. E. Scuseria, 
 M. A. Robb, J. R. Cheeseman, G. Scalmani, V. Barone, 
 G. A. Petersson, H. Nakatsuji, X. Li, M. Caricato, A. V. Marenich, 
 J. Bloino, B. G. Janesko, R. Gomperts, B. Mennucci, H. P. Hratchian, 
 J. V. Ortiz, A. F. Izmaylov, J. L. Sonnenberg, D. Williams-Young, 
 F. Ding, F. Lipparini, F. Egidi, J. Goings, B. Peng, A. Petrone, 
 T. Henderson, D. Ranasinghe, V. G. Zakrzewski, J. Gao, N. Rega, 
 G. Zheng, W. Liang, M. Hada, M. Ehara, K. Toyota, R. Fukuda, 
 J. Hasegawa, M. Ishida, T. Nakajima, Y. Honda, O. Kitao, H. Nakai, 
 T. Vreven, K. Throssell, J. A. Montgomery, Jr., J. E. Peralta, 
 F. Ogliaro, M. J. Bearpark, J. J. Heyd, E. N. Brothers, K. N. Kudin, 
 V. N. Staroverov, T. A. Keith, R. Kobayashi, J. Normand, 
 K. Raghavachari, A. P. Rendell, J. C. Burant, S. S. Iyengar, 
 J. Tomasi, M. Cossi, J. M. Millam, M. Klene, C. Adamo, R. Cammi, 
 J. W. Ochterski, R. L. Martin, K. Morokuma, O. Farkas, 
 J. B. Foresman, and D. J. Fox, Gaussian, Inc., Wallingford CT, 2019.
 
 ******************************************
 Gaussian 16:  ES64L-G16RevC.01  3-Jul-2019
                11-Jun-2024 
 ******************************************
 %nprocshared=48
 Will use up to   48 processors via shared memory.
 %mem=92GB
 ----------------------------------------------------------------------
 #p m062x genecp opt=(ts,calcfc,noeigentest,maxstep=10) freq nosymm scr
 f=(smd,solvent=propylethanoate) empiricaldispersion=gd3 scf=(xqc,maxcy
 cles=128)
 ----------------------------------------------------------------------
 1/5=1,8=10,10=4,11=1,18=20,26=3,38=1/1,3;
 2/9=110,12=2,15=1,17=6,18=5,40=1/2;
 3/5=7,11=2,16=1,17=8,25=1,30=1,70=32201,71=2,72=169,74=-55,124=31,140=1/1,2,3;
 4//1;
 5/5=2,7=128,8=3,13=1,38=5,53=169/2,8;
 8/6=4,10=90,11=11/1;
 11/6=1,8=1,9=11,15=111,16=1,31=1/1,2,10;
 10/6=1,13=1,31=1/2;
 6/7=2,8=2,9=2,10=2,28=1/1;
 7/10=1,25=1,30=1/1,2,3,16;
 1/5=1,8=10,10=4,11=1,18=20,26=3/3(2);
 2/9=110,15=1/2;
 99//99;
 2/9=110,15=1/2;
 3/5=7,6=1,11=2,16=1,17=8,25=1,30=1,70=32205,71=1,72=169,74=-55,82=7,124=31/1,2,3;
 4/5=5,16=3,69=1/1;
 5/5=2,7=128,8=3,13=1,38=5,53=169/2,8;
 7/30=1/1,2,3,16;
 1/5=1,8=10,11=1,18=20,26=3/3(-5);
 2/9=110,15=1/2;
 6/7=2,8=2,9=2,10=2,19=2,28=1/1;
 99/9=1/99;
 Leave Link    1 at Tue Jun 11 19:54:37 2024, MaxMem= 12348030976 cpu:               2.4 elap:               0.1
 (Enter /opt/packages/gaussian/g16RevC.01/g16/l101.exe)
 -------------------
 Title Card Required
 -------------------
 Symbolic Z-matrix:
 Charge =  0 Multiplicity = 1
 C                     1.71139  -1.64597  -0.27615 
 C                     0.31894  -1.91896  -0.63169 
 C                    -0.38717  -2.84237   0.25861 
 C                     0.18702  -3.19125   1.444 
 C                     1.52795  -2.76822   1.73832 
 N                     2.24053  -2.03086   0.84329 
 H                    -0.38067  -3.80291   2.14011 
 C                     2.61849  -0.85543  -1.15861 
 C                     3.94876  -1.26156  -1.40685 
 C                     4.80003  -0.40931  -2.12016 
 C                     3.04128   1.22455  -2.37863 
 C                     4.35588   0.8236   -2.59468 
 H                     5.82016  -0.7365   -2.3267 
 H                     5.03533   1.47052  -3.15129 
 H                     2.64641   2.17373  -2.74202 
 C                     2.20215   0.37481  -1.67345 
 C                     4.45661  -2.59825  -0.98933 
 C                     5.68764  -2.71554  -0.33192 
 C                     3.73461  -3.7624   -1.28906 
 C                     6.18237  -3.96995   0.02724 
 H                     6.25479  -1.81462  -0.08765 
 C                     4.22979  -5.01446  -0.93252 
 H                     2.78025  -3.68139  -1.81769 
 C                     5.45613  -5.12229  -0.27257 
 H                     7.14002  -4.0456    0.54568 
 H                     3.65964  -5.91171  -1.17971 
 H                     5.84435  -6.10349   0.00624 
 F                     0.9449    0.76209  -1.46502 
 C                    -1.77747  -3.26704  -0.08002 
 H                    -2.36167  -2.39482  -0.41722 
 H                    -1.76199  -3.98614  -0.91343 
 H                    -2.26826  -3.73195   0.78362 
 C                     1.60682  -3.89539   3.94611 
 C                     3.55817  -2.72895   3.1204 
 C                     2.47561  -5.13856   4.11472 
 H                     0.56848  -4.17436   3.75453 
 H                     1.63966  -3.29545   4.86878 
 C                     4.34908  -4.01612   3.31289 
 H                     3.94858  -2.14682   2.2819 
 H                     3.59303  -2.12535   4.04056 
 H                     2.39494  -5.76167   3.20298 
 H                     2.12034  -5.72444   4.97258 
 H                     4.34385  -4.587     2.36447 
 H                     5.38952  -3.77946   3.57257 
 N                     2.15653  -3.07761   2.86841 
 O                     3.81383  -4.79216   4.35812 
 I                    -0.0615   -2.15105  -2.71675 
 H                    -0.36461  -0.89308  -0.39222 
 C                    -2.01519   6.63438  -1.45763 
 C                    -2.29329   5.44301  -0.83276 
 C                    -1.24456   4.61579  -0.33742 
 C                     0.10421   5.03973  -0.53065 
 C                     0.35833   6.28465  -1.17066 
 C                    -0.67565   7.0673   -1.6207 
 H                    -2.83224   7.25019  -1.83679 
 H                    -3.32822   5.11735  -0.7245 
 C                    -1.50032   3.36626   0.32053 
 C                     1.17279   4.20642  -0.10093 
 H                     1.39569   6.59867  -1.30364 
 H                    -0.4703    8.01846  -2.11459 
 C                     0.91788   2.98508   0.46448 
 C                    -0.42061   2.5742    0.66726 
 H                     2.1999    4.54594  -0.24914 
 C                    -2.90671   2.93539   0.59781 
 C                    -3.44102   1.78376   0.04652 
 C                    -3.71833   3.69451   1.50644 
 C                    -4.76805   1.36636   0.30077 
 C                    -5.06568   3.28839   1.74564 
 C                    -3.22047   4.83112   2.20812 
 C                    -5.57089   2.11929   1.11674 
 C                    -5.87776   4.04901   2.63276 
 C                    -4.02602   5.53771   3.06738 
 H                    -2.1829    5.13522   2.06985 
 H                    -6.60285   1.81989   1.30952 
 C                    -5.37369   5.1515    3.27568 
 H                    -6.90879   3.72893   2.79648 
 H                    -3.62308   6.40123   3.59892 
 H                    -6.00293   5.72653   3.95694 
 S                    -0.69677   0.93578   1.29369 
 O                    -1.59398   1.02951   2.40127 
 O                     0.58111   0.32751   1.53321 
 S                    -2.43144   0.72541  -0.96312 
 O                    -1.82079   1.53221  -1.97135 
 O                    -3.23747  -0.37532  -1.40242 
 N                    -1.34515   0.12757   0.06733 
 H                     1.72254   2.31496   0.7674 
 H                    -5.12747   0.451    -0.16818 
 
 Add virtual bond connecting atoms N85        and H48        Dist= 2.81D+00.
 ITRead=  0  0  0  0  0  0  0  0  0  0  0  0  0  0  0  0  0  0  0  0
 ITRead=  0  0  0  0  0  0  0  0  0  0  0  0  0  0  0  0  0  0  0  0
 ITRead=  0  0  0  0  0  0  0  0  0  0  0  0  0  0  0  0  0  0  0  0
 ITRead=  0  0  0  0  0  0  0  0  0  0  0  0  0  0  0  0  0  0  0  0
 ITRead=  0  0  0  0  0  0  0
 MicOpt= -1 -1 -1 -1 -1 -1 -1 -1 -1 -1 -1 -1 -1 -1 -1 -1 -1 -1 -1 -1
 MicOpt= -1 -1 -1 -1 -1 -1 -1 -1 -1 -1 -1 -1 -1 -1 -1 -1 -1 -1 -1 -1
 MicOpt= -1 -1 -1 -1 -1 -1 -1 -1 -1 -1 -1 -1 -1 -1 -1 -1 -1 -1 -1 -1
 MicOpt= -1 -1 -1 -1 -1 -1 -1 -1 -1 -1 -1 -1 -1 -1 -1 -1 -1 -1 -1 -1
 MicOpt= -1 -1 -1 -1 -1 -1 -1
 NAtoms=     87 NQM=       87 NQMF=       0 NMMI=      0 NMMIF=      0
                NMic=       0 NMicF=      0.
                    Isotopes and Nuclear Properties:
 (Nuclear quadrupole moments (NQMom) in fm**2, nuclear magnetic moments (NMagM)
  in nuclear magnetons)

  Atom         1           2           3           4           5           6           7           8           9          10
 IAtWgt=          12          12          12          12          12          14           1          12          12          12
 AtmWgt=  12.0000000  12.0000000  12.0000000  12.0000000  12.0000000  14.0030740   1.0078250  12.0000000  12.0000000  12.0000000
 NucSpn=           0           0           0           0           0           2           1           0           0           0
 AtZEff=   0.0000000   0.0000000   0.0000000   0.0000000   0.0000000   0.0000000   0.0000000   0.0000000   0.0000000   0.0000000
 NQMom=    0.0000000   0.0000000   0.0000000   0.0000000   0.0000000   2.0440000   0.0000000   0.0000000   0.0000000   0.0000000
 NMagM=    0.0000000   0.0000000   0.0000000   0.0000000   0.0000000   0.4037610   2.7928460   0.0000000   0.0000000   0.0000000
 AtZNuc=   6.0000000   6.0000000   6.0000000   6.0000000   6.0000000   7.0000000   1.0000000   6.0000000   6.0000000   6.0000000

  Atom        11          12          13          14          15          16          17          18          19          20
 IAtWgt=          12          12           1           1           1          12          12          12          12          12
 AtmWgt=  12.0000000  12.0000000   1.0078250   1.0078250   1.0078250  12.0000000  12.0000000  12.0000000  12.0000000  12.0000000
 NucSpn=           0           0           1           1           1           0           0           0           0           0
 AtZEff=   0.0000000   0.0000000   0.0000000   0.0000000   0.0000000   0.0000000   0.0000000   0.0000000   0.0000000   0.0000000
 NQMom=    0.0000000   0.0000000   0.0000000   0.0000000   0.0000000   0.0000000   0.0000000   0.0000000   0.0000000   0.0000000
 NMagM=    0.0000000   0.0000000   2.7928460   2.7928460   2.7928460   0.0000000   0.0000000   0.0000000   0.0000000   0.0000000
 AtZNuc=   6.0000000   6.0000000   1.0000000   1.0000000   1.0000000   6.0000000   6.0000000   6.0000000   6.0000000   6.0000000

  Atom        21          22          23          24          25          26          27          28          29          30
 IAtWgt=           1          12           1          12           1           1           1          19          12           1
 AtmWgt=   1.0078250  12.0000000   1.0078250  12.0000000   1.0078250   1.0078250   1.0078250  18.9984032  12.0000000   1.0078250
 NucSpn=           1           0           1           0           1           1           1           1           0           1
 AtZEff=   0.0000000   0.0000000   0.0000000   0.0000000   0.0000000   0.0000000   0.0000000   0.0000000   0.0000000   0.0000000
 NQMom=    0.0000000   0.0000000   0.0000000   0.0000000   0.0000000   0.0000000   0.0000000   0.0000000   0.0000000   0.0000000
 NMagM=    2.7928460   0.0000000   2.7928460   0.0000000   2.7928460   2.7928460   2.7928460   2.6288670   0.0000000   2.7928460
 AtZNuc=   1.0000000   6.0000000   1.0000000   6.0000000   1.0000000   1.0000000   1.0000000   9.0000000   6.0000000   1.0000000

  Atom        31          32          33          34          35          36          37          38          39          40
 IAtWgt=           1           1          12          12          12           1           1          12           1           1
 AtmWgt=   1.0078250   1.0078250  12.0000000  12.0000000  12.0000000   1.0078250   1.0078250  12.0000000   1.0078250   1.0078250
 NucSpn=           1           1           0           0           0           1           1           0           1           1
 AtZEff=   0.0000000   0.0000000   0.0000000   0.0000000   0.0000000   0.0000000   0.0000000   0.0000000   0.0000000   0.0000000
 NQMom=    0.0000000   0.0000000   0.0000000   0.0000000   0.0000000   0.0000000   0.0000000   0.0000000   0.0000000   0.0000000
 NMagM=    2.7928460   2.7928460   0.0000000   0.0000000   0.0000000   2.7928460   2.7928460   0.0000000   2.7928460   2.7928460
 AtZNuc=   1.0000000   1.0000000   6.0000000   6.0000000   6.0000000   1.0000000   1.0000000   6.0000000   1.0000000   1.0000000

  Atom        41          42          43          44          45          46          47          48          49          50
 IAtWgt=           1           1           1           1          14          16         127           1          12          12
 AtmWgt=   1.0078250   1.0078250   1.0078250   1.0078250  14.0030740  15.9949146 126.9004000   1.0078250  12.0000000  12.0000000
 NucSpn=           1           1           1           1           2           0           5           1           0           0
 AtZEff=   0.0000000   0.0000000   0.0000000   0.0000000   0.0000000   0.0000000   0.0000000   0.0000000   0.0000000   0.0000000
 NQMom=    0.0000000   0.0000000   0.0000000   0.0000000   2.0440000   0.0000000 -71.0000000   0.0000000   0.0000000   0.0000000
 NMagM=    2.7928460   2.7928460   2.7928460   2.7928460   0.4037610   0.0000000   2.8132800   2.7928460   0.0000000   0.0000000
 AtZNuc=   1.0000000   1.0000000   1.0000000   1.0000000   7.0000000   8.0000000  53.0000000   1.0000000   6.0000000   6.0000000

  Atom        51          52          53          54          55          56          57          58          59          60
 IAtWgt=          12          12          12          12           1           1          12          12           1           1
 AtmWgt=  12.0000000  12.0000000  12.0000000  12.0000000   1.0078250   1.0078250  12.0000000  12.0000000   1.0078250   1.0078250
 NucSpn=           0           0           0           0           1           1           0           0           1           1
 AtZEff=   0.0000000   0.0000000   0.0000000   0.0000000   0.0000000   0.0000000   0.0000000   0.0000000   0.0000000   0.0000000
 NQMom=    0.0000000   0.0000000   0.0000000   0.0000000   0.0000000   0.0000000   0.0000000   0.0000000   0.0000000   0.0000000
 NMagM=    0.0000000   0.0000000   0.0000000   0.0000000   2.7928460   2.7928460   0.0000000   0.0000000   2.7928460   2.7928460
 AtZNuc=   6.0000000   6.0000000   6.0000000   6.0000000   1.0000000   1.0000000   6.0000000   6.0000000   1.0000000   1.0000000

  Atom        61          62          63          64          65          66          67          68          69          70
 IAtWgt=          12          12           1          12          12          12          12          12          12          12
 AtmWgt=  12.0000000  12.0000000   1.0078250  12.0000000  12.0000000  12.0000000  12.0000000  12.0000000  12.0000000  12.0000000
 NucSpn=           0           0           1           0           0           0           0           0           0           0
 AtZEff=   0.0000000   0.0000000   0.0000000   0.0000000   0.0000000   0.0000000   0.0000000   0.0000000   0.0000000   0.0000000
 NQMom=    0.0000000   0.0000000   0.0000000   0.0000000   0.0000000   0.0000000   0.0000000   0.0000000   0.0000000   0.0000000
 NMagM=    0.0000000   0.0000000   2.7928460   0.0000000   0.0000000   0.0000000   0.0000000   0.0000000   0.0000000   0.0000000
 AtZNuc=   6.0000000   6.0000000   1.0000000   6.0000000   6.0000000   6.0000000   6.0000000   6.0000000   6.0000000   6.0000000

  Atom        71          72          73          74          75          76          77          78          79          80
 IAtWgt=          12          12           1           1          12           1           1           1          32          16
 AtmWgt=  12.0000000  12.0000000   1.0078250   1.0078250  12.0000000   1.0078250   1.0078250   1.0078250  31.9720718  15.9949146
 NucSpn=           0           0           1           1           0           1           1           1           0           0
 AtZEff=   0.0000000   0.0000000   0.0000000   0.0000000   0.0000000   0.0000000   0.0000000   0.0000000   0.0000000   0.0000000
 NQMom=    0.0000000   0.0000000   0.0000000   0.0000000   0.0000000   0.0000000   0.0000000   0.0000000   0.0000000   0.0000000
 NMagM=    0.0000000   0.0000000   2.7928460   2.7928460   0.0000000   2.7928460   2.7928460   2.7928460   0.0000000   0.0000000
 AtZNuc=   6.0000000   6.0000000   1.0000000   1.0000000   6.0000000   1.0000000   1.0000000   1.0000000  16.0000000   8.0000000

  Atom        81          82          83          84          85          86          87
 IAtWgt=          16          32          16          16          14           1           1
 AtmWgt=  15.9949146  31.9720718  15.9949146  15.9949146  14.0030740   1.0078250   1.0078250
 NucSpn=           0           0           0           0           2           1           1
 AtZEff=   0.0000000   0.0000000   0.0000000   0.0000000   0.0000000   0.0000000   0.0000000
 NQMom=    0.0000000   0.0000000   0.0000000   0.0000000   2.0440000   0.0000000   0.0000000
 NMagM=    0.0000000   0.0000000   0.0000000   0.0000000   0.4037610   2.7928460   2.7928460
 AtZNuc=   8.0000000  16.0000000   8.0000000   8.0000000   7.0000000   1.0000000   1.0000000
 Leave Link  101 at Tue Jun 11 19:54:37 2024, MaxMem= 12348030976 cpu:              14.8 elap:               0.4
 (Enter /opt/packages/gaussian/g16RevC.01/g16/l103.exe)

 GradGradGradGradGradGradGradGradGradGradGradGradGradGradGradGradGradGrad
 Berny optimization.
 Initialization pass.
                           ----------------------------
                           !    Initial Parameters    !
                           ! (Angstroms and Degrees)  !
 --------------------------                            --------------------------
 ! Name  Definition              Value          Derivative Info.                !
 --------------------------------------------------------------------------------
 ! R1    R(1,2)                  1.4628         calculate D2E/DX2 analytically  !
 ! R2    R(1,6)                  1.2966         calculate D2E/DX2 analytically  !
 ! R3    R(1,8)                  1.4921         calculate D2E/DX2 analytically  !
 ! R4    R(2,3)                  1.4642         calculate D2E/DX2 analytically  !
 ! R5    R(2,47)                 2.1322         calculate D2E/DX2 analytically  !
 ! R6    R(2,48)                 1.2558         calculate D2E/DX2 analytically  !
 ! R7    R(3,4)                  1.3626         calculate D2E/DX2 analytically  !
 ! R8    R(3,29)                 1.4926         calculate D2E/DX2 analytically  !
 ! R9    R(4,5)                  1.4365         calculate D2E/DX2 analytically  !
 ! R10   R(4,7)                  1.0867         calculate D2E/DX2 analytically  !
 ! R11   R(5,6)                  1.3611         calculate D2E/DX2 analytically  !
 ! R12   R(5,45)                 1.3296         calculate D2E/DX2 analytically  !
 ! R13   R(8,9)                  1.4129         calculate D2E/DX2 analytically  !
 ! R14   R(8,16)                 1.3971         calculate D2E/DX2 analytically  !
 ! R15   R(9,10)                 1.3999         calculate D2E/DX2 analytically  !
 ! R16   R(9,17)                 1.4896         calculate D2E/DX2 analytically  !
 ! R17   R(10,12)                1.3937         calculate D2E/DX2 analytically  !
 ! R18   R(10,13)                1.091          calculate D2E/DX2 analytically  !
 ! R19   R(11,12)                1.3913         calculate D2E/DX2 analytically  !
 ! R20   R(11,15)                1.0904         calculate D2E/DX2 analytically  !
 ! R21   R(11,16)                1.3869         calculate D2E/DX2 analytically  !
 ! R22   R(12,14)                1.0909         calculate D2E/DX2 analytically  !
 ! R23   R(16,28)                1.332          calculate D2E/DX2 analytically  !
 ! R24   R(17,18)                1.4005         calculate D2E/DX2 analytically  !
 ! R25   R(17,19)                1.4023         calculate D2E/DX2 analytically  !
 ! R26   R(18,20)                1.3955         calculate D2E/DX2 analytically  !
 ! R27   R(18,21)                1.0922         calculate D2E/DX2 analytically  !
 ! R28   R(19,22)                1.3928         calculate D2E/DX2 analytically  !
 ! R29   R(19,23)                1.094          calculate D2E/DX2 analytically  !
 ! R30   R(20,24)                1.3947         calculate D2E/DX2 analytically  !
 ! R31   R(20,25)                1.0916         calculate D2E/DX2 analytically  !
 ! R32   R(22,24)                1.3968         calculate D2E/DX2 analytically  !
 ! R33   R(22,26)                1.0914         calculate D2E/DX2 analytically  !
 ! R34   R(24,27)                1.0914         calculate D2E/DX2 analytically  !
 ! R35   R(29,30)                1.1026         calculate D2E/DX2 analytically  !
 ! R36   R(29,31)                1.1009         calculate D2E/DX2 analytically  !
 ! R37   R(29,32)                1.0968         calculate D2E/DX2 analytically  !
 ! R38   R(33,35)                1.526          calculate D2E/DX2 analytically  !
 ! R39   R(33,36)                1.0921         calculate D2E/DX2 analytically  !
 ! R40   R(33,37)                1.1011         calculate D2E/DX2 analytically  !
 ! R41   R(33,45)                1.4603         calculate D2E/DX2 analytically  !
 ! R42   R(34,38)                1.523          calculate D2E/DX2 analytically  !
 ! R43   R(34,39)                1.0929         calculate D2E/DX2 analytically  !
 ! R44   R(34,40)                1.101          calculate D2E/DX2 analytically  !
 ! R45   R(34,45)                1.4662         calculate D2E/DX2 analytically  !
 ! R46   R(35,41)                1.1073         calculate D2E/DX2 analytically  !
 ! R47   R(35,42)                1.0979         calculate D2E/DX2 analytically  !
 ! R48   R(35,46)                1.4036         calculate D2E/DX2 analytically  !
 ! R49   R(38,43)                1.107          calculate D2E/DX2 analytically  !
 ! R50   R(38,44)                1.0982         calculate D2E/DX2 analytically  !
 ! R51   R(38,46)                1.4076         calculate D2E/DX2 analytically  !
 ! R52   R(48,85)                1.4881         calculate D2E/DX2 analytically  !
 ! R53   R(49,50)                1.3737         calculate D2E/DX2 analytically  !
 ! R54   R(49,54)                1.4172         calculate D2E/DX2 analytically  !
 ! R55   R(49,55)                1.0911         calculate D2E/DX2 analytically  !
 ! R56   R(50,51)                1.4246         calculate D2E/DX2 analytically  !
 ! R57   R(50,56)                1.0903         calculate D2E/DX2 analytically  !
 ! R58   R(51,52)                1.427          calculate D2E/DX2 analytically  !
 ! R59   R(51,57)                1.4351         calculate D2E/DX2 analytically  !
 ! R60   R(52,53)                1.4227         calculate D2E/DX2 analytically  !
 ! R61   R(52,58)                1.4216         calculate D2E/DX2 analytically  !
 ! R62   R(53,54)                1.3727         calculate D2E/DX2 analytically  !
 ! R63   R(53,59)                1.092          calculate D2E/DX2 analytically  !
 ! R64   R(54,60)                1.0912         calculate D2E/DX2 analytically  !
 ! R65   R(57,62)                1.3832         calculate D2E/DX2 analytically  !
 ! R66   R(57,64)                1.4968         calculate D2E/DX2 analytically  !
 ! R67   R(58,61)                1.3698         calculate D2E/DX2 analytically  !
 ! R68   R(58,63)                1.0919         calculate D2E/DX2 analytically  !
 ! R69   R(61,62)                1.4147         calculate D2E/DX2 analytically  !
 ! R70   R(61,86)                1.0901         calculate D2E/DX2 analytically  !
 ! R71   R(62,79)                1.7757         calculate D2E/DX2 analytically  !
 ! R72   R(64,65)                1.3841         calculate D2E/DX2 analytically  !
 ! R73   R(64,66)                1.4355         calculate D2E/DX2 analytically  !
 ! R74   R(65,67)                1.4142         calculate D2E/DX2 analytically  !
 ! R75   R(65,82)                1.7773         calculate D2E/DX2 analytically  !
 ! R76   R(66,68)                1.4274         calculate D2E/DX2 analytically  !
 ! R77   R(66,69)                1.4255         calculate D2E/DX2 analytically  !
 ! R78   R(67,70)                1.3701         calculate D2E/DX2 analytically  !
 ! R79   R(67,87)                1.0895         calculate D2E/DX2 analytically  !
 ! R80   R(68,70)                1.4204         calculate D2E/DX2 analytically  !
 ! R81   R(68,71)                1.423          calculate D2E/DX2 analytically  !
 ! R82   R(69,72)                1.3735         calculate D2E/DX2 analytically  !
 ! R83   R(69,73)                1.09           calculate D2E/DX2 analytically  !
 ! R84   R(70,74)                1.0917         calculate D2E/DX2 analytically  !
 ! R85   R(71,75)                1.3722         calculate D2E/DX2 analytically  !
 ! R86   R(71,76)                1.0919         calculate D2E/DX2 analytically  !
 ! R87   R(72,75)                1.4173         calculate D2E/DX2 analytically  !
 ! R88   R(72,77)                1.0911         calculate D2E/DX2 analytically  !
 ! R89   R(75,78)                1.0912         calculate D2E/DX2 analytically  !
 ! R90   R(79,80)                1.4285         calculate D2E/DX2 analytically  !
 ! R91   R(79,81)                1.4354         calculate D2E/DX2 analytically  !
 ! R92   R(79,85)                1.6055         calculate D2E/DX2 analytically  !
 ! R93   R(82,83)                1.4284         calculate D2E/DX2 analytically  !
 ! R94   R(82,84)                1.4333         calculate D2E/DX2 analytically  !
 ! R95   R(82,85)                1.6122         calculate D2E/DX2 analytically  !
 ! A1    A(2,1,6)              122.8811         calculate D2E/DX2 analytically  !
 ! A2    A(2,1,8)              122.2624         calculate D2E/DX2 analytically  !
 ! A3    A(6,1,8)              114.8194         calculate D2E/DX2 analytically  !
 ! A4    A(1,2,3)              115.4012         calculate D2E/DX2 analytically  !
 ! A5    A(1,2,47)             115.3307         calculate D2E/DX2 analytically  !
 ! A6    A(1,2,48)             108.6221         calculate D2E/DX2 analytically  !
 ! A7    A(3,2,47)             116.0986         calculate D2E/DX2 analytically  !
 ! A8    A(3,2,48)              97.8599         calculate D2E/DX2 analytically  !
 ! A9    A(47,2,48)            100.2699         calculate D2E/DX2 analytically  !
 ! A10   A(2,3,4)              119.1589         calculate D2E/DX2 analytically  !
 ! A11   A(2,3,29)             119.3849         calculate D2E/DX2 analytically  !
 ! A12   A(4,3,29)             121.1334         calculate D2E/DX2 analytically  !
 ! A13   A(3,4,5)              119.7486         calculate D2E/DX2 analytically  !
 ! A14   A(3,4,7)              118.7666         calculate D2E/DX2 analytically  !
 ! A15   A(5,4,7)              121.4753         calculate D2E/DX2 analytically  !
 ! A16   A(4,5,6)              120.8973         calculate D2E/DX2 analytically  !
 ! A17   A(4,5,45)             123.1538         calculate D2E/DX2 analytically  !
 ! A18   A(6,5,45)             115.9413         calculate D2E/DX2 analytically  !
 ! A19   A(1,6,5)              120.9893         calculate D2E/DX2 analytically  !
 ! A20   A(1,8,9)              121.6008         calculate D2E/DX2 analytically  !
 ! A21   A(1,8,16)             120.2188         calculate D2E/DX2 analytically  !
 ! A22   A(9,8,16)             117.9659         calculate D2E/DX2 analytically  !
 ! A23   A(8,9,10)             119.1484         calculate D2E/DX2 analytically  !
 ! A24   A(8,9,17)             121.9841         calculate D2E/DX2 analytically  !
 ! A25   A(10,9,17)            118.8017         calculate D2E/DX2 analytically  !
 ! A26   A(9,10,12)            121.213          calculate D2E/DX2 analytically  !
 ! A27   A(9,10,13)            118.8461         calculate D2E/DX2 analytically  !
 ! A28   A(12,10,13)           119.9202         calculate D2E/DX2 analytically  !
 ! A29   A(12,11,15)           122.7728         calculate D2E/DX2 analytically  !
 ! A30   A(12,11,16)           118.3001         calculate D2E/DX2 analytically  !
 ! A31   A(15,11,16)           118.9269         calculate D2E/DX2 analytically  !
 ! A32   A(10,12,11)           120.2109         calculate D2E/DX2 analytically  !
 ! A33   A(10,12,14)           119.9888         calculate D2E/DX2 analytically  !
 ! A34   A(11,12,14)           119.7931         calculate D2E/DX2 analytically  !
 ! A35   A(8,16,11)            123.1332         calculate D2E/DX2 analytically  !
 ! A36   A(8,16,28)            118.6625         calculate D2E/DX2 analytically  !
 ! A37   A(11,16,28)           118.1987         calculate D2E/DX2 analytically  !
 ! A38   A(9,17,18)            120.4239         calculate D2E/DX2 analytically  !
 ! A39   A(9,17,19)            120.6314         calculate D2E/DX2 analytically  !
 ! A40   A(18,17,19)           118.9066         calculate D2E/DX2 analytically  !
 ! A41   A(17,18,20)           120.5128         calculate D2E/DX2 analytically  !
 ! A42   A(17,18,21)           119.4934         calculate D2E/DX2 analytically  !
 ! A43   A(20,18,21)           119.988          calculate D2E/DX2 analytically  !
 ! A44   A(17,19,22)           120.5654         calculate D2E/DX2 analytically  !
 ! A45   A(17,19,23)           119.4042         calculate D2E/DX2 analytically  !
 ! A46   A(22,19,23)           120.0268         calculate D2E/DX2 analytically  !
 ! A47   A(18,20,24)           120.1839         calculate D2E/DX2 analytically  !
 ! A48   A(18,20,25)           119.7067         calculate D2E/DX2 analytically  !
 ! A49   A(24,20,25)           120.1093         calculate D2E/DX2 analytically  !
 ! A50   A(19,22,24)           120.1635         calculate D2E/DX2 analytically  !
 ! A51   A(19,22,26)           119.6898         calculate D2E/DX2 analytically  !
 ! A52   A(24,22,26)           120.1441         calculate D2E/DX2 analytically  !
 ! A53   A(20,24,22)           119.6664         calculate D2E/DX2 analytically  !
 ! A54   A(20,24,27)           120.1755         calculate D2E/DX2 analytically  !
 ! A55   A(22,24,27)           120.1581         calculate D2E/DX2 analytically  !
 ! A56   A(3,29,30)            109.7439         calculate D2E/DX2 analytically  !
 ! A57   A(3,29,31)            110.1511         calculate D2E/DX2 analytically  !
 ! A58   A(3,29,32)            111.0251         calculate D2E/DX2 analytically  !
 ! A59   A(30,29,31)           107.0164         calculate D2E/DX2 analytically  !
 ! A60   A(30,29,32)           109.8181         calculate D2E/DX2 analytically  !
 ! A61   A(31,29,32)           108.9984         calculate D2E/DX2 analytically  !
 ! A62   A(35,33,36)           110.6451         calculate D2E/DX2 analytically  !
 ! A63   A(35,33,37)           109.5308         calculate D2E/DX2 analytically  !
 ! A64   A(35,33,45)           108.8718         calculate D2E/DX2 analytically  !
 ! A65   A(36,33,37)           108.3331         calculate D2E/DX2 analytically  !
 ! A66   A(36,33,45)           111.8088         calculate D2E/DX2 analytically  !
 ! A67   A(37,33,45)           107.5824         calculate D2E/DX2 analytically  !
 ! A68   A(38,34,39)           111.2014         calculate D2E/DX2 analytically  !
 ! A69   A(38,34,40)           109.954          calculate D2E/DX2 analytically  !
 ! A70   A(38,34,45)           108.4944         calculate D2E/DX2 analytically  !
 ! A71   A(39,34,40)           109.7473         calculate D2E/DX2 analytically  !
 ! A72   A(39,34,45)           109.6526         calculate D2E/DX2 analytically  !
 ! A73   A(40,34,45)           107.7147         calculate D2E/DX2 analytically  !
 ! A74   A(33,35,41)           109.025          calculate D2E/DX2 analytically  !
 ! A75   A(33,35,42)           109.6844         calculate D2E/DX2 analytically  !
 ! A76   A(33,35,46)           111.1564         calculate D2E/DX2 analytically  !
 ! A77   A(41,35,42)           108.6327         calculate D2E/DX2 analytically  !
 ! A78   A(41,35,46)           110.557          calculate D2E/DX2 analytically  !
 ! A79   A(42,35,46)           107.7414         calculate D2E/DX2 analytically  !
 ! A80   A(34,38,43)           108.9727         calculate D2E/DX2 analytically  !
 ! A81   A(34,38,44)           109.8639         calculate D2E/DX2 analytically  !
 ! A82   A(34,38,46)           111.2448         calculate D2E/DX2 analytically  !
 ! A83   A(43,38,44)           108.5545         calculate D2E/DX2 analytically  !
 ! A84   A(43,38,46)           110.4923         calculate D2E/DX2 analytically  !
 ! A85   A(44,38,46)           107.6677         calculate D2E/DX2 analytically  !
 ! A86   A(5,45,33)            125.4224         calculate D2E/DX2 analytically  !
 ! A87   A(5,45,34)            122.8666         calculate D2E/DX2 analytically  !
 ! A88   A(33,45,34)           111.4818         calculate D2E/DX2 analytically  !
 ! A89   A(35,46,38)           111.7067         calculate D2E/DX2 analytically  !
 ! A90   A(50,49,54)           120.5716         calculate D2E/DX2 analytically  !
 ! A91   A(50,49,55)           119.7309         calculate D2E/DX2 analytically  !
 ! A92   A(54,49,55)           119.6965         calculate D2E/DX2 analytically  !
 ! A93   A(49,50,51)           120.845          calculate D2E/DX2 analytically  !
 ! A94   A(49,50,56)           119.7582         calculate D2E/DX2 analytically  !
 ! A95   A(51,50,56)           119.3921         calculate D2E/DX2 analytically  !
 ! A96   A(50,51,52)           118.4383         calculate D2E/DX2 analytically  !
 ! A97   A(50,51,57)           122.2614         calculate D2E/DX2 analytically  !
 ! A98   A(52,51,57)           119.2881         calculate D2E/DX2 analytically  !
 ! A99   A(51,52,53)           119.3224         calculate D2E/DX2 analytically  !
 ! A100  A(51,52,58)           119.6963         calculate D2E/DX2 analytically  !
 ! A101  A(53,52,58)           120.9745         calculate D2E/DX2 analytically  !
 ! A102  A(52,53,54)           120.7887         calculate D2E/DX2 analytically  !
 ! A103  A(52,53,59)           118.4314         calculate D2E/DX2 analytically  !
 ! A104  A(54,53,59)           120.7776         calculate D2E/DX2 analytically  !
 ! A105  A(49,54,53)           120.0068         calculate D2E/DX2 analytically  !
 ! A106  A(49,54,60)           119.7504         calculate D2E/DX2 analytically  !
 ! A107  A(53,54,60)           120.2393         calculate D2E/DX2 analytically  !
 ! A108  A(51,57,62)           118.3179         calculate D2E/DX2 analytically  !
 ! A109  A(51,57,64)           120.1989         calculate D2E/DX2 analytically  !
 ! A110  A(62,57,64)           121.4761         calculate D2E/DX2 analytically  !
 ! A111  A(52,58,61)           120.4998         calculate D2E/DX2 analytically  !
 ! A112  A(52,58,63)           118.9332         calculate D2E/DX2 analytically  !
 ! A113  A(61,58,63)           120.5531         calculate D2E/DX2 analytically  !
 ! A114  A(58,61,62)           119.6157         calculate D2E/DX2 analytically  !
 ! A115  A(58,61,86)           121.6981         calculate D2E/DX2 analytically  !
 ! A116  A(62,61,86)           118.6861         calculate D2E/DX2 analytically  !
 ! A117  A(57,62,61)           122.4296         calculate D2E/DX2 analytically  !
 ! A118  A(57,62,79)           119.695          calculate D2E/DX2 analytically  !
 ! A119  A(61,62,79)           117.7539         calculate D2E/DX2 analytically  !
 ! A120  A(57,64,65)           121.9006         calculate D2E/DX2 analytically  !
 ! A121  A(57,64,66)           119.7542         calculate D2E/DX2 analytically  !
 ! A122  A(65,64,66)           118.2853         calculate D2E/DX2 analytically  !
 ! A123  A(64,65,67)           122.4273         calculate D2E/DX2 analytically  !
 ! A124  A(64,65,82)           120.1629         calculate D2E/DX2 analytically  !
 ! A125  A(67,65,82)           117.3497         calculate D2E/DX2 analytically  !
 ! A126  A(64,66,68)           119.2951         calculate D2E/DX2 analytically  !
 ! A127  A(64,66,69)           122.3948         calculate D2E/DX2 analytically  !
 ! A128  A(68,66,69)           118.2959         calculate D2E/DX2 analytically  !
 ! A129  A(65,67,70)           119.6519         calculate D2E/DX2 analytically  !
 ! A130  A(65,67,87)           118.6959         calculate D2E/DX2 analytically  !
 ! A131  A(70,67,87)           121.6506         calculate D2E/DX2 analytically  !
 ! A132  A(66,68,70)           119.7165         calculate D2E/DX2 analytically  !
 ! A133  A(66,68,71)           119.4099         calculate D2E/DX2 analytically  !
 ! A134  A(70,68,71)           120.8631         calculate D2E/DX2 analytically  !
 ! A135  A(66,69,72)           120.8832         calculate D2E/DX2 analytically  !
 ! A136  A(66,69,73)           119.5018         calculate D2E/DX2 analytically  !
 ! A137  A(72,69,73)           119.6105         calculate D2E/DX2 analytically  !
 ! A138  A(67,70,68)           120.5024         calculate D2E/DX2 analytically  !
 ! A139  A(67,70,74)           120.5553         calculate D2E/DX2 analytically  !
 ! A140  A(68,70,74)           118.9316         calculate D2E/DX2 analytically  !
 ! A141  A(68,71,75)           120.7909         calculate D2E/DX2 analytically  !
 ! A142  A(68,71,76)           118.4009         calculate D2E/DX2 analytically  !
 ! A143  A(75,71,76)           120.8059         calculate D2E/DX2 analytically  !
 ! A144  A(69,72,75)           120.626          calculate D2E/DX2 analytically  !
 ! A145  A(69,72,77)           119.6897         calculate D2E/DX2 analytically  !
 ! A146  A(75,72,77)           119.6835         calculate D2E/DX2 analytically  !
 ! A147  A(71,75,72)           119.9588         calculate D2E/DX2 analytically  !
 ! A148  A(71,75,78)           120.2701         calculate D2E/DX2 analytically  !
 ! A149  A(72,75,78)           119.7671         calculate D2E/DX2 analytically  !
 ! A150  A(62,79,80)           108.0996         calculate D2E/DX2 analytically  !
 ! A151  A(62,79,81)           108.1452         calculate D2E/DX2 analytically  !
 ! A152  A(62,79,85)           104.9406         calculate D2E/DX2 analytically  !
 ! A153  A(80,79,81)           117.2323         calculate D2E/DX2 analytically  !
 ! A154  A(80,79,85)           111.8169         calculate D2E/DX2 analytically  !
 ! A155  A(81,79,85)           105.8829         calculate D2E/DX2 analytically  !
 ! A156  A(65,82,83)           107.9069         calculate D2E/DX2 analytically  !
 ! A157  A(65,82,84)           108.1792         calculate D2E/DX2 analytically  !
 ! A158  A(65,82,85)           103.9144         calculate D2E/DX2 analytically  !
 ! A159  A(83,82,84)           117.2482         calculate D2E/DX2 analytically  !
 ! A160  A(83,82,85)           111.872          calculate D2E/DX2 analytically  !
 ! A161  A(84,82,85)           106.8604         calculate D2E/DX2 analytically  !
 ! A162  A(48,85,79)           108.3646         calculate D2E/DX2 analytically  !
 ! A163  A(48,85,82)           120.0618         calculate D2E/DX2 analytically  !
 ! A164  A(79,85,82)           125.006          calculate D2E/DX2 analytically  !
 ! A165  L(2,48,85,11,-1)      191.8498         calculate D2E/DX2 analytically  !
 ! A166  L(2,48,85,11,-2)      182.3885         calculate D2E/DX2 analytically  !
 ! D1    D(6,1,2,3)             -9.4929         calculate D2E/DX2 analytically  !
 ! D2    D(6,1,2,47)          -149.2735         calculate D2E/DX2 analytically  !
 ! D3    D(6,1,2,48)            99.1556         calculate D2E/DX2 analytically  !
 ! D4    D(8,1,2,3)            172.8388         calculate D2E/DX2 analytically  !
 ! D5    D(8,1,2,47)            33.0583         calculate D2E/DX2 analytically  !
 ! D6    D(8,1,2,48)           -78.5126         calculate D2E/DX2 analytically  !
 ! D7    D(2,1,6,5)              2.6639         calculate D2E/DX2 analytically  !
 ! D8    D(8,1,6,5)           -179.5085         calculate D2E/DX2 analytically  !
 ! D9    D(2,1,8,9)           -136.2414         calculate D2E/DX2 analytically  !
 ! D10   D(2,1,8,16)            49.1892         calculate D2E/DX2 analytically  !
 ! D11   D(6,1,8,9)             45.916          calculate D2E/DX2 analytically  !
 ! D12   D(6,1,8,16)          -128.6534         calculate D2E/DX2 analytically  !
 ! D13   D(1,2,3,4)             11.2087         calculate D2E/DX2 analytically  !
 ! D14   D(1,2,3,29)          -175.239          calculate D2E/DX2 analytically  !
 ! D15   D(47,2,3,4)           150.6748         calculate D2E/DX2 analytically  !
 ! D16   D(47,2,3,29)          -35.7729         calculate D2E/DX2 analytically  !
 ! D17   D(48,2,3,4)          -103.7778         calculate D2E/DX2 analytically  !
 ! D18   D(48,2,3,29)           69.7745         calculate D2E/DX2 analytically  !
 ! D19   D(1,2,85,79)          -25.7878         calculate D2E/DX2 analytically  !
 ! D20   D(1,2,85,82)          132.171          calculate D2E/DX2 analytically  !
 ! D21   D(3,2,85,79)           92.4391         calculate D2E/DX2 analytically  !
 ! D22   D(3,2,85,82)         -109.602          calculate D2E/DX2 analytically  !
 ! D23   D(47,2,85,79)        -150.3839         calculate D2E/DX2 analytically  !
 ! D24   D(47,2,85,82)           7.5749         calculate D2E/DX2 analytically  !
 ! D25   D(2,3,4,5)             -6.6695         calculate D2E/DX2 analytically  !
 ! D26   D(2,3,4,7)            174.4335         calculate D2E/DX2 analytically  !
 ! D27   D(29,3,4,5)           179.8946         calculate D2E/DX2 analytically  !
 ! D28   D(29,3,4,7)             0.9975         calculate D2E/DX2 analytically  !
 ! D29   D(2,3,29,30)          -43.4812         calculate D2E/DX2 analytically  !
 ! D30   D(2,3,29,31)           74.0935         calculate D2E/DX2 analytically  !
 ! D31   D(2,3,29,32)         -165.0727         calculate D2E/DX2 analytically  !
 ! D32   D(4,3,29,30)          129.9401         calculate D2E/DX2 analytically  !
 ! D33   D(4,3,29,31)         -112.4852         calculate D2E/DX2 analytically  !
 ! D34   D(4,3,29,32)            8.3486         calculate D2E/DX2 analytically  !
 ! D35   D(3,4,5,6)             -0.5541         calculate D2E/DX2 analytically  !
 ! D36   D(3,4,5,45)          -179.5136         calculate D2E/DX2 analytically  !
 ! D37   D(7,4,5,6)            178.3122         calculate D2E/DX2 analytically  !
 ! D38   D(7,4,5,45)            -0.6473         calculate D2E/DX2 analytically  !
 ! D39   D(4,5,6,1)              2.7189         calculate D2E/DX2 analytically  !
 ! D40   D(45,5,6,1)          -178.2498         calculate D2E/DX2 analytically  !
 ! D41   D(4,5,45,33)            1.2472         calculate D2E/DX2 analytically  !
 ! D42   D(4,5,45,34)          175.2721         calculate D2E/DX2 analytically  !
 ! D43   D(6,5,45,33)         -177.7599         calculate D2E/DX2 analytically  !
 ! D44   D(6,5,45,34)           -3.735          calculate D2E/DX2 analytically  !
 ! D45   D(1,8,9,10)          -172.9942         calculate D2E/DX2 analytically  !
 ! D46   D(1,8,9,17)             9.9904         calculate D2E/DX2 analytically  !
 ! D47   D(16,8,9,10)            1.6931         calculate D2E/DX2 analytically  !
 ! D48   D(16,8,9,17)         -175.3223         calculate D2E/DX2 analytically  !
 ! D49   D(1,8,16,11)          172.8765         calculate D2E/DX2 analytically  !
 ! D50   D(1,8,16,28)           -6.2407         calculate D2E/DX2 analytically  !
 ! D51   D(9,8,16,11)           -1.8873         calculate D2E/DX2 analytically  !
 ! D52   D(9,8,16,28)          178.9956         calculate D2E/DX2 analytically  !
 ! D53   D(8,9,10,12)           -0.4256         calculate D2E/DX2 analytically  !
 ! D54   D(8,9,10,13)         -178.7663         calculate D2E/DX2 analytically  !
 ! D55   D(17,9,10,12)         176.6856         calculate D2E/DX2 analytically  !
 ! D56   D(17,9,10,13)          -1.6551         calculate D2E/DX2 analytically  !
 ! D57   D(8,9,17,18)         -133.2327         calculate D2E/DX2 analytically  !
 ! D58   D(8,9,17,19)           49.0368         calculate D2E/DX2 analytically  !
 ! D59   D(10,9,17,18)          49.7419         calculate D2E/DX2 analytically  !
 ! D60   D(10,9,17,19)        -127.9886         calculate D2E/DX2 analytically  !
 ! D61   D(9,10,12,11)          -0.7704         calculate D2E/DX2 analytically  !
 ! D62   D(9,10,12,14)        -179.7874         calculate D2E/DX2 analytically  !
 ! D63   D(13,10,12,11)        177.5527         calculate D2E/DX2 analytically  !
 ! D64   D(13,10,12,14)         -1.4643         calculate D2E/DX2 analytically  !
 ! D65   D(15,11,12,10)       -179.2024         calculate D2E/DX2 analytically  !
 ! D66   D(15,11,12,14)         -0.1834         calculate D2E/DX2 analytically  !
 ! D67   D(16,11,12,10)          0.6328         calculate D2E/DX2 analytically  !
 ! D68   D(16,11,12,14)        179.6518         calculate D2E/DX2 analytically  !
 ! D69   D(12,11,16,8)           0.7217         calculate D2E/DX2 analytically  !
 ! D70   D(12,11,16,28)        179.8426         calculate D2E/DX2 analytically  !
 ! D71   D(15,11,16,8)        -179.4366         calculate D2E/DX2 analytically  !
 ! D72   D(15,11,16,28)         -0.3156         calculate D2E/DX2 analytically  !
 ! D73   D(9,17,18,20)        -178.2285         calculate D2E/DX2 analytically  !
 ! D74   D(9,17,18,21)           2.6492         calculate D2E/DX2 analytically  !
 ! D75   D(19,17,18,20)         -0.4592         calculate D2E/DX2 analytically  !
 ! D76   D(19,17,18,21)       -179.5815         calculate D2E/DX2 analytically  !
 ! D77   D(9,17,19,22)         178.1116         calculate D2E/DX2 analytically  !
 ! D78   D(9,17,19,23)          -1.1924         calculate D2E/DX2 analytically  !
 ! D79   D(18,17,19,22)          0.3471         calculate D2E/DX2 analytically  !
 ! D80   D(18,17,19,23)       -178.9569         calculate D2E/DX2 analytically  !
 ! D81   D(17,18,20,24)          0.3379         calculate D2E/DX2 analytically  !
 ! D82   D(17,18,20,25)       -179.5599         calculate D2E/DX2 analytically  !
 ! D83   D(21,18,20,24)        179.4558         calculate D2E/DX2 analytically  !
 ! D84   D(21,18,20,25)         -0.442          calculate D2E/DX2 analytically  !
 ! D85   D(17,19,22,24)         -0.1126         calculate D2E/DX2 analytically  !
 ! D86   D(17,19,22,26)       -179.5281         calculate D2E/DX2 analytically  !
 ! D87   D(23,19,22,24)        179.187          calculate D2E/DX2 analytically  !
 ! D88   D(23,19,22,26)         -0.2285         calculate D2E/DX2 analytically  !
 ! D89   D(18,20,24,22)         -0.0965         calculate D2E/DX2 analytically  !
 ! D90   D(18,20,24,27)        179.851          calculate D2E/DX2 analytically  !
 ! D91   D(25,20,24,22)        179.8009         calculate D2E/DX2 analytically  !
 ! D92   D(25,20,24,27)         -0.2516         calculate D2E/DX2 analytically  !
 ! D93   D(19,22,24,20)         -0.0154         calculate D2E/DX2 analytically  !
 ! D94   D(19,22,24,27)       -179.9629         calculate D2E/DX2 analytically  !
 ! D95   D(26,22,24,20)        179.3974         calculate D2E/DX2 analytically  !
 ! D96   D(26,22,24,27)         -0.5501         calculate D2E/DX2 analytically  !
 ! D97   D(36,33,35,41)         57.7246         calculate D2E/DX2 analytically  !
 ! D98   D(36,33,35,42)        -61.1106         calculate D2E/DX2 analytically  !
 ! D99   D(36,33,35,46)        179.846          calculate D2E/DX2 analytically  !
 ! D100  D(37,33,35,41)        177.0847         calculate D2E/DX2 analytically  !
 ! D101  D(37,33,35,42)         58.2495         calculate D2E/DX2 analytically  !
 ! D102  D(37,33,35,46)        -60.7939         calculate D2E/DX2 analytically  !
 ! D103  D(45,33,35,41)        -65.5293         calculate D2E/DX2 analytically  !
 ! D104  D(45,33,35,42)        175.6355         calculate D2E/DX2 analytically  !
 ! D105  D(45,33,35,46)         56.5921         calculate D2E/DX2 analytically  !
 ! D106  D(35,33,45,5)         118.2642         calculate D2E/DX2 analytically  !
 ! D107  D(35,33,45,34)        -56.3442         calculate D2E/DX2 analytically  !
 ! D108  D(36,33,45,5)          -4.2911         calculate D2E/DX2 analytically  !
 ! D109  D(36,33,45,34)       -178.8995         calculate D2E/DX2 analytically  !
 ! D110  D(37,33,45,5)        -123.1197         calculate D2E/DX2 analytically  !
 ! D111  D(37,33,45,34)         62.2719         calculate D2E/DX2 analytically  !
 ! D112  D(39,34,38,43)        -55.5677         calculate D2E/DX2 analytically  !
 ! D113  D(39,34,38,44)         63.2472         calculate D2E/DX2 analytically  !
 ! D114  D(39,34,38,46)       -177.6301         calculate D2E/DX2 analytically  !
 ! D115  D(40,34,38,43)       -177.3288         calculate D2E/DX2 analytically  !
 ! D116  D(40,34,38,44)        -58.514          calculate D2E/DX2 analytically  !
 ! D117  D(40,34,38,46)         60.6087         calculate D2E/DX2 analytically  !
 ! D118  D(45,34,38,43)         65.1046         calculate D2E/DX2 analytically  !
 ! D119  D(45,34,38,44)       -176.0806         calculate D2E/DX2 analytically  !
 ! D120  D(45,34,38,46)        -56.9578         calculate D2E/DX2 analytically  !
 ! D121  D(38,34,45,5)        -118.2848         calculate D2E/DX2 analytically  !
 ! D122  D(38,34,45,33)         56.4848         calculate D2E/DX2 analytically  !
 ! D123  D(39,34,45,5)           3.3419         calculate D2E/DX2 analytically  !
 ! D124  D(39,34,45,33)        178.1115         calculate D2E/DX2 analytically  !
 ! D125  D(40,34,45,5)         122.7286         calculate D2E/DX2 analytically  !
 ! D126  D(40,34,45,33)        -62.5018         calculate D2E/DX2 analytically  !
 ! D127  D(33,35,46,38)        -58.8512         calculate D2E/DX2 analytically  !
 ! D128  D(41,35,46,38)         62.3767         calculate D2E/DX2 analytically  !
 ! D129  D(42,35,46,38)       -179.0522         calculate D2E/DX2 analytically  !
 ! D130  D(34,38,46,35)         59.2702         calculate D2E/DX2 analytically  !
 ! D131  D(43,38,46,35)        -61.9069         calculate D2E/DX2 analytically  !
 ! D132  D(44,38,46,35)        179.6973         calculate D2E/DX2 analytically  !
 ! D133  D(54,49,50,51)         -0.1116         calculate D2E/DX2 analytically  !
 ! D134  D(54,49,50,56)       -179.3076         calculate D2E/DX2 analytically  !
 ! D135  D(55,49,50,51)        179.5414         calculate D2E/DX2 analytically  !
 ! D136  D(55,49,50,56)          0.3454         calculate D2E/DX2 analytically  !
 ! D137  D(50,49,54,53)          0.9901         calculate D2E/DX2 analytically  !
 ! D138  D(50,49,54,60)       -179.6886         calculate D2E/DX2 analytically  !
 ! D139  D(55,49,54,53)       -178.6631         calculate D2E/DX2 analytically  !
 ! D140  D(55,49,54,60)          0.6582         calculate D2E/DX2 analytically  !
 ! D141  D(49,50,51,52)         -1.3164         calculate D2E/DX2 analytically  !
 ! D142  D(49,50,51,57)        179.9667         calculate D2E/DX2 analytically  !
 ! D143  D(56,50,51,52)        177.8825         calculate D2E/DX2 analytically  !
 ! D144  D(56,50,51,57)         -0.8344         calculate D2E/DX2 analytically  !
 ! D145  D(50,51,52,53)          1.8777         calculate D2E/DX2 analytically  !
 ! D146  D(50,51,52,58)       -177.1782         calculate D2E/DX2 analytically  !
 ! D147  D(57,51,52,53)       -179.3663         calculate D2E/DX2 analytically  !
 ! D148  D(57,51,52,58)          1.5777         calculate D2E/DX2 analytically  !
 ! D149  D(50,51,57,62)        174.5547         calculate D2E/DX2 analytically  !
 ! D150  D(50,51,57,64)         -4.4913         calculate D2E/DX2 analytically  !
 ! D151  D(52,51,57,62)         -4.1517         calculate D2E/DX2 analytically  !
 ! D152  D(52,51,57,64)        176.8023         calculate D2E/DX2 analytically  !
 ! D153  D(51,52,53,54)         -1.0488         calculate D2E/DX2 analytically  !
 ! D154  D(51,52,53,59)        179.502          calculate D2E/DX2 analytically  !
 ! D155  D(58,52,53,54)        177.9948         calculate D2E/DX2 analytically  !
 ! D156  D(58,52,53,59)         -1.4545         calculate D2E/DX2 analytically  !
 ! D157  D(51,52,58,61)          1.738          calculate D2E/DX2 analytically  !
 ! D158  D(51,52,58,63)       -179.6108         calculate D2E/DX2 analytically  !
 ! D159  D(53,52,58,61)       -177.302          calculate D2E/DX2 analytically  !
 ! D160  D(53,52,58,63)          1.3492         calculate D2E/DX2 analytically  !
 ! D161  D(52,53,54,49)         -0.3937         calculate D2E/DX2 analytically  !
 ! D162  D(52,53,54,60)       -179.7117         calculate D2E/DX2 analytically  !
 ! D163  D(59,53,54,49)        179.0425         calculate D2E/DX2 analytically  !
 ! D164  D(59,53,54,60)         -0.2754         calculate D2E/DX2 analytically  !
 ! D165  D(51,57,62,61)          3.6075         calculate D2E/DX2 analytically  !
 ! D166  D(51,57,62,79)       -172.2941         calculate D2E/DX2 analytically  !
 ! D167  D(64,57,62,61)       -177.3593         calculate D2E/DX2 analytically  !
 ! D168  D(64,57,62,79)          6.7392         calculate D2E/DX2 analytically  !
 ! D169  D(51,57,64,65)        118.0308         calculate D2E/DX2 analytically  !
 ! D170  D(51,57,64,66)        -64.8316         calculate D2E/DX2 analytically  !
 ! D171  D(62,57,64,65)        -60.9846         calculate D2E/DX2 analytically  !
 ! D172  D(62,57,64,66)        116.153          calculate D2E/DX2 analytically  !
 ! D173  D(52,58,61,62)         -2.3978         calculate D2E/DX2 analytically  !
 ! D174  D(52,58,61,86)        177.7242         calculate D2E/DX2 analytically  !
 ! D175  D(63,58,61,62)        178.9729         calculate D2E/DX2 analytically  !
 ! D176  D(63,58,61,86)         -0.905          calculate D2E/DX2 analytically  !
 ! D177  D(58,61,62,57)         -0.332          calculate D2E/DX2 analytically  !
 ! D178  D(58,61,62,79)        175.6451         calculate D2E/DX2 analytically  !
 ! D179  D(86,61,62,57)        179.5496         calculate D2E/DX2 analytically  !
 ! D180  D(86,61,62,79)         -4.4733         calculate D2E/DX2 analytically  !
 ! D181  D(57,62,79,80)        -53.8231         calculate D2E/DX2 analytically  !
 ! D182  D(57,62,79,81)        178.3173         calculate D2E/DX2 analytically  !
 ! D183  D(57,62,79,85)         65.6413         calculate D2E/DX2 analytically  !
 ! D184  D(61,62,79,80)        130.0856         calculate D2E/DX2 analytically  !
 ! D185  D(61,62,79,81)          2.226          calculate D2E/DX2 analytically  !
 ! D186  D(61,62,79,85)       -110.45           calculate D2E/DX2 analytically  !
 ! D187  D(57,64,65,67)       -179.9934         calculate D2E/DX2 analytically  !
 ! D188  D(57,64,65,82)          2.9005         calculate D2E/DX2 analytically  !
 ! D189  D(66,64,65,67)          2.8285         calculate D2E/DX2 analytically  !
 ! D190  D(66,64,65,82)       -174.2775         calculate D2E/DX2 analytically  !
 ! D191  D(57,64,66,68)        178.9024         calculate D2E/DX2 analytically  !
 ! D192  D(57,64,66,69)         -2.4905         calculate D2E/DX2 analytically  !
 ! D193  D(65,64,66,68)         -3.8571         calculate D2E/DX2 analytically  !
 ! D194  D(65,64,66,69)        174.75           calculate D2E/DX2 analytically  !
 ! D195  D(64,65,67,70)          0.2307         calculate D2E/DX2 analytically  !
 ! D196  D(64,65,67,87)        179.7812         calculate D2E/DX2 analytically  !
 ! D197  D(82,65,67,70)        177.4138         calculate D2E/DX2 analytically  !
 ! D198  D(82,65,67,87)         -3.0357         calculate D2E/DX2 analytically  !
 ! D199  D(64,65,82,83)        -51.8377         calculate D2E/DX2 analytically  !
 ! D200  D(64,65,82,84)       -179.6112         calculate D2E/DX2 analytically  !
 ! D201  D(64,65,82,85)         67.0691         calculate D2E/DX2 analytically  !
 ! D202  D(67,65,82,83)        130.9123         calculate D2E/DX2 analytically  !
 ! D203  D(67,65,82,84)          3.1388         calculate D2E/DX2 analytically  !
 ! D204  D(67,65,82,85)       -110.1809         calculate D2E/DX2 analytically  !
 ! D205  D(64,66,68,70)          1.9646         calculate D2E/DX2 analytically  !
 ! D206  D(64,66,68,71)       -179.2012         calculate D2E/DX2 analytically  !
 ! D207  D(69,66,68,70)       -176.6997         calculate D2E/DX2 analytically  !
 ! D208  D(69,66,68,71)          2.1345         calculate D2E/DX2 analytically  !
 ! D209  D(64,66,69,72)        179.7897         calculate D2E/DX2 analytically  !
 ! D210  D(64,66,69,73)         -0.9894         calculate D2E/DX2 analytically  !
 ! D211  D(68,66,69,72)         -1.5898         calculate D2E/DX2 analytically  !
 ! D212  D(68,66,69,73)        177.631          calculate D2E/DX2 analytically  !
 ! D213  D(65,67,70,68)         -2.2425         calculate D2E/DX2 analytically  !
 ! D214  D(65,67,70,74)        178.9601         calculate D2E/DX2 analytically  !
 ! D215  D(87,67,70,68)        178.2206         calculate D2E/DX2 analytically  !
 ! D216  D(87,67,70,74)         -0.5768         calculate D2E/DX2 analytically  !
 ! D217  D(66,68,70,67)          1.1213         calculate D2E/DX2 analytically  !
 ! D218  D(66,68,70,74)        179.938          calculate D2E/DX2 analytically  !
 ! D219  D(71,68,70,67)       -177.6956         calculate D2E/DX2 analytically  !
 ! D220  D(71,68,70,74)          1.1211         calculate D2E/DX2 analytically  !
 ! D221  D(66,68,71,75)         -1.1164         calculate D2E/DX2 analytically  !
 ! D222  D(66,68,71,76)        179.4318         calculate D2E/DX2 analytically  !
 ! D223  D(70,68,71,75)        177.7041         calculate D2E/DX2 analytically  !
 ! D224  D(70,68,71,76)         -1.7477         calculate D2E/DX2 analytically  !
 ! D225  D(66,69,72,75)         -0.0141         calculate D2E/DX2 analytically  !
 ! D226  D(66,69,72,77)        179.6437         calculate D2E/DX2 analytically  !
 ! D227  D(73,69,72,75)       -179.2342         calculate D2E/DX2 analytically  !
 ! D228  D(73,69,72,77)          0.4237         calculate D2E/DX2 analytically  !
 ! D229  D(68,71,75,72)         -0.5102         calculate D2E/DX2 analytically  !
 ! D230  D(68,71,75,78)       -179.7799         calculate D2E/DX2 analytically  !
 ! D231  D(76,71,75,72)        178.9283         calculate D2E/DX2 analytically  !
 ! D232  D(76,71,75,78)         -0.3414         calculate D2E/DX2 analytically  !
 ! D233  D(69,72,75,71)          1.0929         calculate D2E/DX2 analytically  !
 ! D234  D(69,72,75,78)       -179.6336         calculate D2E/DX2 analytically  !
 ! D235  D(77,72,75,71)       -178.565          calculate D2E/DX2 analytically  !
 ! D236  D(77,72,75,78)          0.7085         calculate D2E/DX2 analytically  !
 ! D237  D(62,79,85,48)        111.778          calculate D2E/DX2 analytically  !
 ! D238  D(62,79,85,82)        -39.4915         calculate D2E/DX2 analytically  !
 ! D239  D(80,79,85,48)       -131.275          calculate D2E/DX2 analytically  !
 ! D240  D(80,79,85,82)         77.4555         calculate D2E/DX2 analytically  !
 ! D241  D(81,79,85,48)         -2.4922         calculate D2E/DX2 analytically  !
 ! D242  D(81,79,85,82)       -153.7617         calculate D2E/DX2 analytically  !
 ! D243  D(65,82,85,48)        175.6923         calculate D2E/DX2 analytically  !
 ! D244  D(65,82,85,79)        -36.1183         calculate D2E/DX2 analytically  !
 ! D245  D(83,82,85,48)        -68.1535         calculate D2E/DX2 analytically  !
 ! D246  D(83,82,85,79)         80.0358         calculate D2E/DX2 analytically  !
 ! D247  D(84,82,85,48)         61.4283         calculate D2E/DX2 analytically  !
 ! D248  D(84,82,85,79)       -150.3823         calculate D2E/DX2 analytically  !
 --------------------------------------------------------------------------------
 Trust Radius=1.00D-01 FncErr=1.00D-07 GrdErr=1.00D-06 EigMax=2.50D+02 EigMin=1.00D-04
 Number of steps in this run=    519 maximum allowed number of steps=    522.
 Search for a saddle point of order  1.
 GradGradGradGradGradGradGradGradGradGradGradGradGradGradGradGradGradGrad

 Leave Link  103 at Tue Jun 11 19:54:38 2024, MaxMem= 12348030976 cpu:               2.9 elap:               0.1
 (Enter /opt/packages/gaussian/g16RevC.01/g16/l202.exe)
 Symmetry turned off by external request.
 Stoichiometry    C42H33FIN3O5S2
 Framework group  C1[X(C42H33FIN3O5S2)]
 Deg. of freedom   255
 Full point group                 C1      NOp   1
                          Input orientation:                          
 ---------------------------------------------------------------------
 Center     Atomic      Atomic             Coordinates (Angstroms)
 Number     Number       Type             X           Y           Z
 ---------------------------------------------------------------------
      1          6           0        1.711388   -1.645970   -0.276149
      2          6           0        0.318936   -1.918961   -0.631692
      3          6           0       -0.387174   -2.842368    0.258606
      4          6           0        0.187024   -3.191252    1.444002
      5          6           0        1.527951   -2.768218    1.738317
      6          7           0        2.240533   -2.030865    0.843287
      7          1           0       -0.380671   -3.802910    2.140112
      8          6           0        2.618486   -0.855430   -1.158605
      9          6           0        3.948756   -1.261555   -1.406850
     10          6           0        4.800033   -0.409311   -2.120161
     11          6           0        3.041284    1.224550   -2.378633
     12          6           0        4.355877    0.823604   -2.594678
     13          1           0        5.820157   -0.736496   -2.326704
     14          1           0        5.035326    1.470515   -3.151293
     15          1           0        2.646413    2.173725   -2.742016
     16          6           0        2.202153    0.374812   -1.673449
     17          6           0        4.456607   -2.598251   -0.989326
     18          6           0        5.687641   -2.715542   -0.331917
     19          6           0        3.734614   -3.762401   -1.289062
     20          6           0        6.182370   -3.969949    0.027240
     21          1           0        6.254794   -1.814619   -0.087653
     22          6           0        4.229786   -5.014456   -0.932520
     23          1           0        2.780247   -3.681386   -1.817685
     24          6           0        5.456127   -5.122286   -0.272572
     25          1           0        7.140015   -4.045600    0.545675
     26          1           0        3.659637   -5.911708   -1.179713
     27          1           0        5.844352   -6.103494    0.006239
     28          9           0        0.944898    0.762089   -1.465018
     29          6           0       -1.777468   -3.267043   -0.080015
     30          1           0       -2.361666   -2.394818   -0.417217
     31          1           0       -1.761989   -3.986136   -0.913431
     32          1           0       -2.268263   -3.731946    0.783621
     33          6           0        1.606822   -3.895388    3.946107
     34          6           0        3.558166   -2.728953    3.120395
     35          6           0        2.475613   -5.138555    4.114722
     36          1           0        0.568483   -4.174364    3.754534
     37          1           0        1.639658   -3.295449    4.868777
     38          6           0        4.349077   -4.016115    3.312891
     39          1           0        3.948582   -2.146818    2.281904
     40          1           0        3.593031   -2.125345    4.040559
     41          1           0        2.394936   -5.761668    3.202983
     42          1           0        2.120344   -5.724438    4.972579
     43          1           0        4.343846   -4.587000    2.364468
     44          1           0        5.389520   -3.779463    3.572573
     45          7           0        2.156534   -3.077605    2.868405
     46          8           0        3.813826   -4.792157    4.358117
     47         53           0       -0.061498   -2.151050   -2.716753
     48          1           0       -0.364606   -0.893078   -0.392220
     49          6           0       -2.015189    6.634385   -1.457633
     50          6           0       -2.293289    5.443014   -0.832764
     51          6           0       -1.244557    4.615785   -0.337419
     52          6           0        0.104206    5.039728   -0.530653
     53          6           0        0.358325    6.284650   -1.170658
     54          6           0       -0.675654    7.067302   -1.620696
     55          1           0       -2.832238    7.250191   -1.836790
     56          1           0       -3.328217    5.117354   -0.724504
     57          6           0       -1.500322    3.366258    0.320532
     58          6           0        1.172792    4.206424   -0.100925
     59          1           0        1.395687    6.598665   -1.303635
     60          1           0       -0.470295    8.018464   -2.114589
     61          6           0        0.917877    2.985075    0.464482
     62          6           0       -0.420613    2.574197    0.667263
     63          1           0        2.199899    4.545942   -0.249137
     64          6           0       -2.906706    2.935391    0.597814
     65          6           0       -3.441022    1.783757    0.046519
     66          6           0       -3.718334    3.694508    1.506436
     67          6           0       -4.768049    1.366359    0.300774
     68          6           0       -5.065680    3.288388    1.745640
     69          6           0       -3.220473    4.831116    2.208120
     70          6           0       -5.570888    2.119286    1.116736
     71          6           0       -5.877758    4.049011    2.632757
     72          6           0       -4.026023    5.537709    3.067384
     73          1           0       -2.182900    5.135224    2.069850
     74          1           0       -6.602851    1.819893    1.309519
     75          6           0       -5.373689    5.151498    3.275677
     76          1           0       -6.908785    3.728928    2.796483
     77          1           0       -3.623077    6.401232    3.598922
     78          1           0       -6.002935    5.726526    3.956941
     79         16           0       -0.696765    0.935782    1.293694
     80          8           0       -1.593981    1.029513    2.401269
     81          8           0        0.581110    0.327506    1.533213
     82         16           0       -2.431439    0.725407   -0.963120
     83          8           0       -1.820788    1.532207   -1.971350
     84          8           0       -3.237466   -0.375318   -1.402424
     85          7           0       -1.345145    0.127574    0.067326
     86          1           0        1.722540    2.314958    0.767401
     87          1           0       -5.127468    0.451001   -0.168184
 ---------------------------------------------------------------------
 Rotational constants (GHZ):           0.0760374           0.0311437           0.0294939
 Leave Link  202 at Tue Jun 11 19:54:38 2024, MaxMem= 12348030976 cpu:               4.3 elap:               0.2
 (Enter /opt/packages/gaussian/g16RevC.01/g16/l301.exe)
 General basis read from cards:  (5D, 7F)
 Centers:       1      2      3      4      5      8      9     10     11     12
 Centers:      16     17     18     19     20     22     24     29     33     34
 Centers:      35     38     49     50     51     52     53     54     57     58
 Centers:      61     62     64     65     66     67     68     69     70     71
 Centers:      72     75      7     13     14     15     21     23     25     26
 Centers:      27     30     31     32     36     37     39     40     41     42
 Centers:      43     44     48     55     56     59     60     63     73     74
 Centers:      76     77     78     86     87      6     45     85     28     46
 Centers:      80     81     83     84
 def2svp
 ****
 Centers:      47     79     82
 def2tzvp
 ****
 ======================================================================================================
                                       Pseudopotential Parameters
 ======================================================================================================
  Center     Atomic      Valence      Angular      Power
  Number     Number     Electrons     Momentum     of R      Exponent        Coefficient   SO-Coeffient
 ======================================================================================================
    1          6
                                   No pseudopotential on this center.
    2          6
                                   No pseudopotential on this center.
    3          6
                                   No pseudopotential on this center.
    4          6
                                   No pseudopotential on this center.
    5          6
                                   No pseudopotential on this center.
    6          7
                                   No pseudopotential on this center.
    7          1
                                   No pseudopotential on this center.
    8          6
                                   No pseudopotential on this center.
    9          6
                                   No pseudopotential on this center.
   10          6
                                   No pseudopotential on this center.
   11          6
                                   No pseudopotential on this center.
   12          6
                                   No pseudopotential on this center.
   13          1
                                   No pseudopotential on this center.
   14          1
                                   No pseudopotential on this center.
   15          1
                                   No pseudopotential on this center.
   16          6
                                   No pseudopotential on this center.
   17          6
                                   No pseudopotential on this center.
   18          6
                                   No pseudopotential on this center.
   19          6
                                   No pseudopotential on this center.
   20          6
                                   No pseudopotential on this center.
   21          1
                                   No pseudopotential on this center.
   22          6
                                   No pseudopotential on this center.
   23          1
                                   No pseudopotential on this center.
   24          6
                                   No pseudopotential on this center.
   25          1
                                   No pseudopotential on this center.
   26          1
                                   No pseudopotential on this center.
   27          1
                                   No pseudopotential on this center.
   28          9
                                   No pseudopotential on this center.
   29          6
                                   No pseudopotential on this center.
   30          1
                                   No pseudopotential on this center.
   31          1
                                   No pseudopotential on this center.
   32          1
                                   No pseudopotential on this center.
   33          6
                                   No pseudopotential on this center.
   34          6
                                   No pseudopotential on this center.
   35          6
                                   No pseudopotential on this center.
   36          1
                                   No pseudopotential on this center.
   37          1
                                   No pseudopotential on this center.
   38          6
                                   No pseudopotential on this center.
   39          1
                                   No pseudopotential on this center.
   40          1
                                   No pseudopotential on this center.
   41          1
                                   No pseudopotential on this center.
   42          1
                                   No pseudopotential on this center.
   43          1
                                   No pseudopotential on this center.
   44          1
                                   No pseudopotential on this center.
   45          7
                                   No pseudopotential on this center.
   46          8
                                   No pseudopotential on this center.
   47         53           25
                                      G and up 
                                                     2        1.0000000        0.00000000    0.00000000
                                      S - G
                                                     2       40.0158350       49.99429300    0.00000000
                                                     2       17.4297470      281.02531700    0.00000000
                                                     2        9.0054840       61.57332600    0.00000000
                                      P - G
                                                     2       15.3554660       67.44284100 -134.88568300
                                                     2       14.9718330      134.88113700  134.88113700
                                                     2        8.9601640       14.67505100  -29.35010100
                                                     2        8.2590960       29.37566600   29.37566600
                                      D - G
                                                     2       15.0689080       35.43952900  -35.43952900
                                                     2       14.5553220       53.17605700   35.45070400
                                                     2        6.7186470        9.06719500   -9.06719500
                                                     2        6.4563930       13.20693700    8.80462400
                                                     2        1.1917790        0.08933500   -0.08933500
                                                     2        1.2911570        0.05238000    0.03492000
                                      F - G
                                                     2       19.4586090      -21.84204000   14.56136000
                                                     2       19.3492600      -28.46819100  -14.23409500
                                                     2        4.8237670       -0.24371300    0.16247500
                                                     2        4.8843150       -0.32080400   -0.16040200
   48          1
                                   No pseudopotential on this center.
   49          6
                                   No pseudopotential on this center.
   50          6
                                   No pseudopotential on this center.
   51          6
                                   No pseudopotential on this center.
   52          6
                                   No pseudopotential on this center.
   53          6
                                   No pseudopotential on this center.
   54          6
                                   No pseudopotential on this center.
   55          1
                                   No pseudopotential on this center.
   56          1
                                   No pseudopotential on this center.
   57          6
                                   No pseudopotential on this center.
   58          6
                                   No pseudopotential on this center.
   59          1
                                   No pseudopotential on this center.
   60          1
                                   No pseudopotential on this center.
   61          6
                                   No pseudopotential on this center.
   62          6
                                   No pseudopotential on this center.
   63          1
                                   No pseudopotential on this center.
   64          6
                                   No pseudopotential on this center.
   65          6
                                   No pseudopotential on this center.
   66          6
                                   No pseudopotential on this center.
   67          6
                                   No pseudopotential on this center.
   68          6
                                   No pseudopotential on this center.
   69          6
                                   No pseudopotential on this center.
   70          6
                                   No pseudopotential on this center.
   71          6
                                   No pseudopotential on this center.
   72          6
                                   No pseudopotential on this center.
   73          1
                                   No pseudopotential on this center.
   74          1
                                   No pseudopotential on this center.
   75          6
                                   No pseudopotential on this center.
   76          1
                                   No pseudopotential on this center.
   77          1
                                   No pseudopotential on this center.
   78          1
                                   No pseudopotential on this center.
   79         16
                                   No pseudopotential on this center.
   80          8
                                   No pseudopotential on this center.
   81          8
                                   No pseudopotential on this center.
   82         16
[...]
 038123,0.00004532,0.00005922,0.00016174,-0.00009869,0.00005578,0.00000
 213,0.00000675,-0.00000319,0.00002018,-0.00002145,0.00001381,-0.003613
 04,-0.00281497,0.00135890,0.00989473,-0.00637797,0.00283232,-0.0000189
 2,0.00000309,-0.00000317,0.00003517,-0.00004005,0.00001191,-0.22003315
 ,0.13439881,-0.06116650,-0.01569527,0.01602373,-0.00752312,0.00044327,
 0.00032447,-0.00018052,-0.00033289,0.00103376,-0.00041820,0.00003747,-
 0.00005083,0.00008381,-0.00025142,-0.00018848,-0.00002832,-0.00003586,
 -0.00005692,0.00004996,0.00000813,0.00002518,0.00008317,-0.00000445,-0
 .00000155,-0.00001898,-0.00003268,-0.00004573,-0.00003077,-0.00001688,
 -0.00001627,-0.00000657,0.00000687,0.00002166,0.00000971,-0.00000078,-
 0.00000490,-0.00000368,-0.00000331,0.00000298,-0.00000822,0.00000669,0
 .00000723,-0.00000038,-0.00000694,0.00000293,0.00000835,-0.00000303,0.
 00000420,0.00000496,-0.00000145,0.00000242,0.00000305,-0.00484529,0.00
 304306,-0.00154987,0.00076022,-0.00046546,-0.00014265,0.00337568,0.000
 84899,-0.00011639,-0.00062578,0.00053248,-0.00025298,0.00013317,-0.000
 19477,0.00005812,0.00014941,-0.00004804,0.00007098,0.00077065,-0.00003
 501,0.00075865,0.22845275,-0.00000244,-0.00012507,-0.00009348,-0.00005
 013,0.00008305,-0.00005421,-0.00003511,-0.00002709,0.00005400,-0.00001
 652,-0.00000180,-0.00000750,0.00002074,-0.00015212,0.00017268,0.000045
 66,0.00017072,0.00000253,0.00000569,-0.00000063,-0.00000287,-0.0000539
 7,0.00009298,0.00007832,0.00013853,-0.00002577,-0.00000494,-0.00004156
 ,-0.00005538,0.00003231,0.00004130,0.00001740,-0.00001760,-0.00006515,
 0.00004436,-0.00000765,-0.00000372,-0.00000134,0.00000462,-0.00000746,
 0.00000298,0.00001237,0.00000401,0.00001752,0.00004280,0.00019326,0.00
 000169,-0.00014760,-0.00000710,-0.00001513,0.00000245,0.00000060,0.000
 01017,0.00000251,-0.00000662,0.00000729,0.00000241,-0.00000022,0.00000
 104,0.00000205,0.00000518,-0.00000053,-0.00000091,-0.00000217,-0.00000
 278,0.00000182,-0.00000159,-0.00000144,-0.00000370,-0.00000292,0.00000
 267,-0.00000242,-0.00000150,0.00000155,-0.00000173,0.00000120,0.000000
 96,-0.00000099,-0.00000021,0.00000153,-0.00000096,-0.00022851,-0.00006
 400,0.00012546,0.00000341,0.00000674,0.00001201,-0.00000210,-0.0000067
 6,-0.00000512,0.00000519,0.00000379,0.00000026,0.00000369,0.00000107,-
 0.00000227,-0.00002444,-0.00001059,0.00002790,0.00001834,0.00002314,0.
 00000839,0.00001921,-0.00001278,-0.00000597,0.00000237,-0.00000108,0.0
 0000109,0.00000356,0.00000324,-0.00000770,0.00000806,-0.00002989,0.000
 00789,0.00001306,-0.00001145,0.00000484,-0.00000497,-0.00000293,-0.000
 00146,-0.00000048,0.00000056,0.00000222,-0.00000396,0.00000598,-0.0000
 0343,0.00000016,0.00000214,0.00000122,-0.00000522,0.00000519,-0.000003
 11,-0.00003892,0.00003843,-0.00008730,-0.00000862,0.00001856,-0.000014
 78,0.00000591,0.00000052,-0.00000818,0.00007862,-0.00020090,-0.0000979
 9,-0.00034880,-0.00019974,0.00013614,-0.00005241,0.00026607,-0.0004111
 4,-0.00043579,-0.00079232,0.00009352,-0.00217827,-0.00191180,0.0047513
 3,0.00098842,0.00016543,-0.00001200,0.00021713,-0.00053481,0.00001942,
 0.00001125,0.00000359,0.00001992,0.00001996,-0.00000665,0.00001592,-0.
 00252034,0.00059331,0.00160509,0.02012728,-0.00871903,0.00673528,-0.00
 004410,0.00002505,0.00005658,0.00009245,-0.00005443,0.00003354,0.13505
 218,-0.16303794,0.05629056,-0.00559451,0.00876442,-0.00245426,0.000012
 88,0.00026680,-0.00257341,-0.00037448,0.00055409,-0.00001176,0.0000284
 8,0.00000987,0.00003174,-0.00014510,-0.00007193,0.00002827,-0.00001715
 ,-0.00003091,0.00000676,-0.00000072,0.00000532,0.00005581,-0.00000626,
 -0.00000158,-0.00002584,-0.00000637,-0.00000979,-0.00001239,-0.0000156
 7,-0.00001156,-0.00000676,-0.00000470,0.00000649,0.00000914,0.00000035
 ,0.00000082,0.00000410,0.00000106,-0.00000172,-0.00000366,0.00000921,0
 .00000107,-0.00000128,-0.00000261,0.00000203,0.00000245,0.00000040,-0.
 00000053,-0.00000054,0.00000017,0.00000012,0.00000058,-0.00353568,-0.0
 0015773,-0.00152227,0.00078423,0.00020346,-0.00016041,0.00036903,-0.00
 247826,0.00076929,-0.00035154,0.00036931,-0.00027076,0.00007434,-0.000
 12016,0.00007471,0.00015711,0.00000922,0.00009276,0.00047603,-0.000232
 15,0.00063819,-0.14278105,0.16731202,-0.00016665,-0.00014289,0.0001258
 0,0.00012137,-0.00008635,-0.00002220,0.00000134,0.00002381,-0.00000447
 ,0.00002507,-0.00000003,-0.00002262,-0.00002068,0.00000942,0.00006963,
 0.00002441,0.00005161,-0.00011730,0.00000207,0.00000227,0.00000046,0.0
 0003075,-0.00000024,0.00004038,-0.00005219,-0.00002289,0.00001206,-0.0
 0002590,0.00008623,-0.00006433,-0.00008804,0.00001636,-0.00002545,0.00
 014769,-0.00003209,0.00003351,-0.00000443,0.00001037,0.00000118,-0.000
 00985,-0.00000145,-0.00000058,0.00000451,0.00001782,-0.00007976,0.0004
 6145,-0.00039866,-0.00032173,0.00000539,-0.00003315,0.00001983,-0.0000
 0178,0.00002019,-0.00000842,-0.00001192,0.00001432,-0.00001110,-0.0000
 0028,0.00000092,0.00000113,0.00000430,-0.00000214,0.00000508,0.0000019
 3,0.00000196,-0.00000418,-0.00000225,-0.00000299,0.00000245,-0.0000035
 7,0.00001108,-0.00000398,-0.00000346,0.00000289,-0.00000036,-0.0000003
 4,0.00000369,0.00000020,-0.00000082,0.00000185,0.00000038,-0.00023679,
 0.00046793,0.00044967,-0.00000002,-0.00000098,-0.00001266,0.00000421,0
 .00001147,0.00000543,-0.00000010,-0.00000509,-0.00000004,0.00000209,0.
 00000056,-0.00000024,-0.00000308,0.00000340,0.00000337,0.00000636,0.00
 000261,0.00001118,0.00000191,0.00000681,0.00000093,-0.00000031,0.00000
 177,0.00000093,-0.00000048,0.00000223,-0.00000575,-0.00000830,0.000004
 10,0.00000161,-0.00000157,0.00000588,0.00001167,-0.00000216,0.00000378
 ,-0.00001274,0.00000122,-0.00000305,-0.00000221,-0.00000045,0.00000064
 ,0.00000030,0.00000040,-0.00000624,-0.00000124,-0.00000044,0.00000147,
 0.00000117,0.00000353,-0.00000357,-0.00002930,0.00000262,-0.00000902,-
 0.00000389,0.00000751,0.00000307,-0.00000857,-0.00021730,0.00017706,0.
 00009962,-0.00007891,-0.00011990,0.00014709,-0.00012501,-0.00015452,-0
 .00056062,-0.00000294,-0.00072566,-0.00029384,0.00113780,0.00463516,0.
 00691826,-0.00043508,0.00029089,-0.00017140,0.00028967,-0.00015299,-0.
 00053569,-0.00001018,0.00002300,0.00004243,-0.00000704,0.00002934,0.00
 002131,0.00082043,0.00276471,0.00319447,-0.00927585,0.00755092,0.00192
 964,0.00000942,0.00007358,0.00013646,-0.00003147,0.00002213,-0.0000028
 7,-0.06251758,0.05509651,-0.06461089,0.00442989,-0.00270137,0.00429340
 ,0.00007599,-0.00262781,-0.00425644,0.00001692,-0.00016482,0.00033817,
 0.00004233,0.00013556,-0.00008248,-0.00001515,0.00000289,0.00003106,-0
 .00005877,0.00000705,0.00001444,0.00000604,0.00001754,0.00000913,-0.00
 000691,-0.00001845,-0.00002012,0.00003005,-0.00001274,-0.00001878,-0.0
 0000326,-0.00000384,-0.00000711,-0.00001054,-0.00000632,-0.00000026,0.
 00000820,-0.00000137,-0.00000642,-0.00000199,-0.00000125,0.00000127,0.
 00000511,-0.00000032,0.00000877,-0.00000175,0.00000164,-0.00000228,0.0
 0000037,0.00000054,-0.00000294,0.00000069,-0.00000044,0.00000026,0.001
 41731,-0.00073018,-0.00142685,0.00028396,0.00043958,-0.00025753,-0.000
 13082,0.00095346,-0.00067852,0.00030804,-0.00035653,0.00035667,0.00004
 072,0.00010020,-0.00011506,-0.00011788,0.00001368,-0.00012115,-0.00072
 130,-0.00056874,-0.00042326,0.06462420,-0.06402647,0.05601368,-0.00010
 561,-0.00000999,-0.00004797,0.00011575,-0.00014722,-0.00001213,-0.0000
 4864,0.00003654,-0.00008216,0.00008569,0.00000985,0.00004712,-0.000079
 98,0.00002181,-0.00008560,0.00001400,-0.00001921,0.00005829,0.00000010
 ,0.00000189,0.00000026,0.00001542,-0.00000275,-0.00000332,-0.00001164,
 0.00000497,-0.00000171,0.00000479,0.00000154,-0.00000201,0.00001287,-0
 .00000080,-0.00000214,0.00000194,0.00000262,-0.00000145,0.00000104,0.0
 0000021,-0.00000078,0.00000147,-0.00000014,-0.00000087,-0.00000169,-0.
 00000164,-0.00000187,-0.00006609,0.00001125,0.00001985,0.00000197,0.00
 000211,0.00000057,-0.00000095,-0.00000222,-0.00000047,-0.00000140,-0.0
 0000263,-0.00000317,0.00000103,-0.00000090,-0.00000024,-0.00000030,0.0
 0000031,0.00000025,0.00000226,0.00000188,-0.00000056,-0.00000120,0.000
 00088,0.00000149,0.00000119,-0.00000016,0.00000073,0.00000058,-0.00000
 026,0.00000060,-0.00000105,0.00000048,0.00000046,0.00000017,-0.0000004
 9,0.00000062,0.00002368,-0.00000220,-0.00001071,0.00000729,0.00000759,
 -0.00001521,-0.00004981,0.00011589,-0.00001487,0.00001484,-0.00001181,
 -0.00000290,0.00000982,-0.00000256,0.00000669,0.00001309,0.00000513,-0
 .00001554,-0.00001847,-0.00001554,-0.00000203,-0.00001473,0.00000738,0
 .00000196,-0.00000138,0.00000204,-0.00000188,-0.00000250,-0.00000215,0
 .00000525,0.00000085,0.00001488,-0.00000207,-0.00000159,0.00000030,-0.
 00000112,0.00000594,0.00000215,0.00000294,0.00000049,-0.00000038,-0.00
 000093,0.00000248,-0.00000313,0.00000192,-0.00000084,-0.00000075,-0.00
 000090,0.00000318,-0.00000334,0.00000203,0.00004794,-0.00001786,0.0000
 7132,0.00000774,-0.00000580,0.00000523,0.00001641,-0.00000171,0.000013
 53,-0.00023968,0.00024833,0.00006610,0.00001174,-0.00001847,0.00000874
 ,-0.00000632,0.00000772,-0.00002765,-0.00035327,0.00000446,0.00000351,
 0.00002087,-0.00004034,0.00009236,-0.00003167,0.00000646,-0.00000705,0
 .00001235,0.00000054,-0.00000052,0.00000003,-0.00000456,0.00000247,-0.
 00000169,0.00000471,-0.00000230,0.00018120,-0.00111273,-0.00056102,-0.
 00004603,0.00002573,-0.00002520,-0.00000407,-0.00000898,0.00000632,0.0
 0000014,-0.00000297,0.00000219,-0.00006534,0.00002388,0.00004756,0.000
 03479,0.00002650,0.00009883,-0.00000172,-0.00000004,-0.00000865,-0.004
 35338,-0.00127354,0.00255433,-0.00447120,-0.02166448,-0.01151872,-0.00
 057562,0.00081165,0.00053409,-0.08741131,-0.08610321,-0.03856226,-0.00
 143862,0.00062676,0.00448564,0.00005896,-0.00013941,-0.00037496,0.0109
 2573,0.01616109,0.00864673,0.00073333,0.00033319,0.00001924,-0.0002966
 5,0.00000978,0.00016112,0.00001318,0.00002364,0.00002687,0.00023073,0.
 00047428,-0.00192668,0.00001349,0.00044258,0.00009134,-0.00001388,-0.0
 0004956,0.00003437,0.00001237,-0.00000726,0.00000923,0.00003549,0.0000
 8058,0.00004458,-0.00023142,-0.00077184,-0.00052905,0.00002019,0.00023
 296,0.00010942,0.00015386,0.00010997,0.00012130,-0.00407687,-0.0045801
 3,-0.00300807,0.00080229,0.00084138,-0.00014571,0.00218012,0.00197876,
 0.00044504,0.00078669,0.00043168,0.00100866,-0.00002080,-0.00000856,0.
 00000832,0.08740582,-0.00001475,-0.00000085,-0.00001304,0.00001713,-0.
 00004523,-0.00000507,0.00003890,0.00003060,0.00000486,-0.00002689,-0.0
 0000464,-0.00000902,0.00003447,0.00000727,0.00000035,-0.00000874,-0.00
 001085,0.00002109,0.00000169,-0.00000181,0.00000131,-0.00000583,0.0000
 0114,0.00000015,0.00000264,-0.00000101,-0.00000002,-0.00000143,0.00000
 002,0.00000042,-0.00000534,0.00000046,0.00000220,0.00000077,-0.0000006
 7,0.00000064,-0.00000033,0.00000010,0.00000005,-0.00000065,-0.00000011
 ,0.00000009,0.00000057,0.00000002,-0.00000167,0.00002925,-0.00000670,-
 0.00000903,-0.00000087,-0.00000034,-0.00000009,-0.00000004,0.00000040,
 0.00000009,0.,0.00000063,0.00000140,-0.00000025,0.00000023,0.00000032,
 0.00000028,-0.00000020,-0.00000021,-0.00000058,0.00000008,0.00000056,0
 .00000047,0.00000039,-0.00000106,-0.00000046,-0.00000035,0.,-0.0000002
 0,0.00000003,-0.00000035,0.00000066,-0.00000043,-0.00000046,0.00000025
 ,0.00000022,-0.00000028,-0.00002508,0.00000996,0.00000430,-0.00002385,
 -0.00001854,0.00000594,0.00005177,-0.00001627,-0.00001915,-0.00000292,
 0.,0.00000319,0.00000311,-0.00000972,0.00000625,0.00000047,0.00000086,
 0.00000138,0.00000386,0.00000289,0.00000079,0.00000524,-0.00000185,0.0
 0000156,0.00000042,-0.00000129,0.00000097,0.00000063,-0.00000007,-0.00
 000009,0.00000130,-0.00000152,-0.00000100,0.00000036,-0.00000022,0.000
 00017,-0.00000084,-0.00000029,-0.00000028,0.00000002,0.00000015,-0.000
 00025,0.00000005,0.00000021,-0.00000005,0.00000039,0.00000021,0.000000
 46,-0.00000098,0.00000037,-0.00000049,-0.00001061,-0.00000096,-0.00000
 332,-0.00000620,0.00000023,-0.00000100,0.00000555,-0.00000353,-0.00001
 403,-0.00002282,0.00007843,0.00002324,0.00001309,-0.00000103,-0.000002
 72,0.00000310,-0.00000671,0.00001243,-0.00003428,0.00004255,-0.0000353
 4,0.00000434,-0.00000218,-0.00000197,0.00000513,0.00000028,0.00000327,
 -0.00000257,-0.00000560,-0.00000160,-0.00000029,-0.00000440,0.00000306
 ,-0.00000322,0.00000193,-0.00000168,0.00015123,-0.00001137,-0.00030378
 ,-0.00002430,-0.00000127,0.00000057,-0.00000109,-0.00000102,0.00000301
 ,-0.00000004,-0.00000174,0.00000081,0.00000842,0.00000491,0.00002019,-
 0.00004589,0.00003607,0.00004515,-0.00000035,-0.00000377,-0.00000197,-
 0.00153822,0.00230112,-0.00069959,-0.00317256,-0.00336515,-0.00335860,
 0.00056785,-0.00003973,0.00015078,-0.08622311,-0.26249777,-0.11385277,
 0.00073610,0.00239827,-0.00451176,0.00002877,0.00001219,0.00041107,-0.
 00707426,-0.00583928,-0.00514684,-0.00049196,-0.00017506,0.00008191,0.
 00025959,0.00007706,-0.00010232,-0.00000916,0.00001227,-0.00000665,0.0
 0076684,-0.00090427,0.00274364,0.00013006,-0.00042950,0.00003935,-0.00
 000665,0.00005678,-0.00006961,-0.00001011,0.00000670,-0.00002536,-0.00
 003496,-0.00003466,-0.00002617,0.00000337,-0.00005618,0.00003680,-0.00
 003140,0.00001248,-0.00002136,-0.00005513,0.00001901,-0.00001641,0.001
 09502,-0.00178545,0.00016144,-0.00050665,0.00024793,0.00022683,0.00237
 126,-0.00103720,-0.00129108,0.00020293,-0.00018567,-0.00012445,-0.0000
 0484,-0.00000125,-0.00000142,0.09288338,0.27115329,0.00012067,0.000003
 34,0.00006801,-0.00016344,0.00022926,0.00002981,-0.00002974,-0.0000737
 8,0.00007466,-0.00002979,-0.00001340,-0.00003900,0.00000551,-0.0000405
 1,0.00008843,0.00000568,0.00004748,-0.00009943,-0.00000482,0.00000915,
 -0.00000039,-0.00000313,0.00000186,0.00000229,0.00000492,-0.00000350,0
 .00000114,-0.00000219,0.00000031,-0.00000005,-0.00000486,-0.00000042,0
 .00000123,-0.00000031,-0.00000121,-0.00000007,-0.00000041,0.00000003,0
 .00000067,-0.00000015,0.00000003,0.00000048,0.00000108,0.00000091,0.00
 000137,0.00002091,-0.00000537,-0.00000503,-0.00000013,-0.00000188,-0.0
 0000003,0.00000048,0.00000162,-0.00000021,0.00000137,0.00000155,0.0000
 0097,-0.00000037,0.00000030,-0.00000036,0.00000002,-0.00000015,0.00000
 031,-0.00000097,-0.00000118,-0.00000075,-0.00000014,-0.00000107,0.0000
 0028,-0.00000029,0.00000073,-0.00000084,-0.00000050,0.00000020,0.00000
 005,0.00000011,0.00000013,0.00000066,-0.00000055,0.00000035,0.00000007
 ,-0.00000782,0.,0.00000502,0.00000910,-0.00000902,-0.00000929,-0.00001
 218,-0.00003435,0.00005254,0.00001065,-0.00000251,-0.00000273,-0.00000
 803,0.00002974,-0.00001107,-0.00001503,-0.00000889,0.00001490,0.000008
 31,0.00001060,0.00000058,0.00000266,-0.00000066,-0.00000429,0.00000015
 ,0.00000371,0.00000079,-0.00000048,0.00000187,-0.00000658,-0.00000422,
 -0.00001205,0.00000677,0.00000137,-0.00000025,0.00000094,-0.00000413,-
 0.00000200,-0.00000247,0.00000042,-0.00000096,0.00000057,-0.00000257,0
 .00000325,-0.00000189,0.00000009,-0.00000006,-0.00000059,-0.00000103,0
 .00000247,-0.00000100,-0.00002398,0.00001856,-0.00006537,0.00000752,0.
 00000458,-0.00000555,-0.00000066,-0.00000516,-0.00001318,0.00023687,-0
 .00034609,-0.00011402,-0.00001298,0.00000225,-0.00000188,-0.00001216,0
 .00001870,-0.00000855,0.00002223,-0.00001506,0.00002492,0.00001617,-0.
 00001152,-0.00000599,-0.00000233,0.00000286,-0.00000568,0.00000307,0.0
 0000073,0.00000858,0.00000036,0.00000053,-0.00000299,0.00000599,0.0000
 0807,-0.00000689,-0.00000656,0.00021912,0.00042115,0.00002179,0.000030
 89,-0.00001162,-0.00000013,-0.00000074,-0.00000314,0.00000022,0.000000
 92,-0.00000003,-0.00004367,-0.00003933,0.00000320,0.00010115,-0.000053
 91,-0.00012207,-0.00000200,-0.00000017,0.00000127,0.00273997,-0.001800
 60,0.00227019,0.00224802,0.00509832,0.00557822,-0.00014102,0.00044392,
 -0.00028008,-0.04026195,-0.11406177,-0.10006726,0.00439263,-0.00437224
 ,0.00445428,-0.00023632,0.00026320,-0.00036046,-0.00629622,-0.01452404
 ,-0.00172522,-0.00045020,-0.00044806,-0.00017876,0.00002923,0.00001359
 ,0.00008470,0.00000611,-0.00003557,0.00001033,-0.00168574,0.00290441,-
 0.00288556,0.00006721,0.00021237,-0.00050948,0.00006138,-0.00006759,0.
 00010440,0.00000562,-0.00003240,0.00003108,-0.00002521,-0.00005509,-0.
 00001753,0.00000086,0.00036380,0.00052037,0.00012586,-0.00003438,-0.00
 012263,-0.00009596,-0.00004941,-0.00014168,0.00141067,0.00187938,-0.00
 080998,0.00025702,-0.00017330,-0.00033842,0.00055745,-0.00132493,-0.00
 139991,-0.00106637,0.00016459,-0.00040568,0.00000686,0.00000358,0.0000
 0312,0.03814303,0.12566127,0.09592736\\-0.00000134,-0.00000093,0.00000
 008,-0.00000035,-0.00000201,0.00000225,-0.00000033,0.00000006,0.000003
 36,0.00000186,-0.00000014,0.00000313,0.00000135,0.00000146,0.00000108,
 0.00000047,-0.00000041,-0.00000006,0.00000203,0.00000137,0.00000436,-0
 .00000189,-0.00000124,-0.00000133,-0.00000197,-0.00000134,-0.00000246,
 -0.00000287,-0.00000205,-0.00000427,-0.00000316,-0.00000242,-0.0000037
 3,-0.00000348,-0.00000254,-0.00000487,-0.00000307,-0.00000216,-0.00000
 507,-0.00000413,-0.00000298,-0.00000615,-0.00000366,-0.00000278,-0.000
 00425,-0.00000240,-0.00000181,-0.00000235,-0.00000217,-0.00000084,-0.0
 0000187,-0.00000103,0.00000004,-0.00000153,-0.00000151,-0.00000140,0.0
 0000007,-0.00000030,-0.00000018,-0.00000208,-0.00000054,-0.00000019,-0
 .00000458,-0.00000130,-0.00000109,0.00000059,-0.00000224,-0.00000136,0
 .00000104,-0.00000074,-0.00000187,-0.00000240,0.00000026,0.00000043,-0
 .00000352,-0.00000140,-0.00000128,0.00000183,-0.00000011,-0.00000012,-
 0.00000037,-0.00000202,-0.00000172,-0.00000111,-0.00000066,-0.00000041
 ,0.00000555,-0.00000092,-0.00000105,0.00000516,-0.00000130,-0.00000161
 ,0.00000612,0.00000044,0.00000017,0.00000643,0.00000396,0.00000364,0.0
 0000232,0.00000318,0.00000272,-0.00000104,0.00000406,0.00000333,0.0000
 0255,0.00000398,0.00000282,0.00000362,0.00000511,0.00000407,0.00000181
 ,0.00000309,0.00000309,0.00000027,0.00000306,0.00000132,-0.00000353,0.
 00000386,0.00000311,-0.00000135,0.00000342,0.00000249,0.00000302,0.000
 00527,0.00000395,0.00000330,0.00000239,0.00000318,0.00000147,0.0000037
 4,0.00000296,-0.00000253,0.00000294,0.00000179,0.00000135,0.00000458,0
 .00000362,0.00000006,-0.00000344,-0.00000329,0.00000230,-0.00000134,0.
 00000113,0.00000122,-0.00000262,-0.00000197,-0.00000306,-0.00000181,-0
 .00000142,-0.00000173,-0.00000135,-0.00000098,-0.00000207,-0.00000153,
 -0.00000094,-0.00000399,-0.00000224,-0.00000150,-0.00000536,-0.0000027
 9,-0.00000196,-0.00000493,-0.00000305,-0.00000231,-0.00000274,-0.00000
 166,-0.00000136,-0.00000030,-0.00000032,-0.00000034,-0.00000092,-0.000
 00097,-0.00000047,-0.00000436,-0.00000239,-0.00000154,-0.00000677,-0.0
 0000340,-0.00000239,-0.00000599,-0.00000024,0.,-0.00000296,-0.00000017
 ,0.00000009,-0.00000131,-0.00000110,-0.00000053,-0.00000582,-0.0000001
 0,-0.00000038,0.00000136,-0.00000051,-0.00000047,0.00000281,0.00000100
 ,0.00000057,0.00000127,-0.00000036,-0.00000054,0.00000443,0.00000117,0
 .00000075,0.00000322,0.00000154,0.00000121,-0.00000016,0.00000050,0.00
 000011,0.00000480,0.00000199,0.00000141,0.00000341,0.00000245,0.000001
 95,0.00000009,0.00000128,0.00000117,-0.00000151,0.00000068,0.00000022,
 0.00000618,0.00000263,0.00000207,0.00000193,0.00000219,0.00000152,0.00
 000483,0.00000292,0.00000245,-0.00000109,0.00000334,0.00000262,0.00000
 209,0.00000094,0.00000116,0.00000112,0.00000208,0.00000155,0.00000122,
 0.00000121,0.00000065,-0.00000024,-0.00000201,-0.00000104,0.00000207,-
 0.00000279,-0.00000247,0.00000115,-0.00000194,-0.00000196,0.00000463,-
 0.00000130,-0.00000178,0.00000240,0.00000016,0.00000029,-0.00000336,-0
 .00000079,-0.00000099,0.00000577\\\@
 The archive entry for this job was punched.


 We find comfort among those who agree with us -- growth among those who don't.
 -- Frank A. Clark
 Job cpu time:       2 days 19 hours 18 minutes 52.8 seconds.
 Elapsed time:       0 days  1 hours 29 minutes 39.5 seconds.
 File lengths (MBytes):  RWF=   9621 Int=      0 D2E=      0 Chk=    119 Scr=      1
 Normal termination of Gaussian 16 at Tue Jun 11 23:11:22 2024.
