 Entering Gaussian System, Link 0=g16
 Initial command:
 /ihome/crc/install/gaussian/c01/avx2/tar/g16/l1.exe "/scratch/slurm-17984239/Gau-37629.inp" -scrdir="/scratch/slurm-17984239/"
 Entering Link 1 = /ihome/crc/install/gaussian/c01/avx2/tar/g16/l1.exe PID=     37630.
  
 Copyright (c) 1988-2019, Gaussian, Inc.  All Rights Reserved.
  
 This is part of the Gaussian(R) 16 program.  It is based on
 the Gaussian(R) 09 system (copyright 2009, Gaussian, Inc.),
 the Gaussian(R) 03 system (copyright 2003, Gaussian, Inc.),
 the Gaussian(R) 98 system (copyright 1998, Gaussian, Inc.),
 the Gaussian(R) 94 system (copyright 1995, Gaussian, Inc.),
 the Gaussian 92(TM) system (copyright 1992, Gaussian, Inc.),
 the Gaussian 90(TM) system (copyright 1990, Gaussian, Inc.),
 the Gaussian 88(TM) system (copyright 1988, Gaussian, Inc.),
 the Gaussian 86(TM) system (copyright 1986, Carnegie Mellon
 University), and the Gaussian 82(TM) system (copyright 1983,
 Carnegie Mellon University). Gaussian is a federally registered
 trademark of Gaussian, Inc.
  
 This software contains proprietary and confidential information,
 including trade secrets, belonging to Gaussian, Inc.
  
 This software is provided under written license and may be
 used, copied, transmitted, or stored only in accord with that
 written license.
  
 The following legend is applicable only to US Government
 contracts under FAR:
  
                    RESTRICTED RIGHTS LEGEND
  
 Use, reproduction and disclosure by the US Government is
 subject to restrictions as set forth in subparagraphs (a)
 and (c) of the Commercial Computer Software - Restricted
 Rights clause in FAR 52.227-19.
  
 Gaussian, Inc.
 340 Quinnipiac St., Bldg. 40, Wallingford CT 06492
  
  
 ---------------------------------------------------------------
 Warning -- This program may not be used in any manner that
 competes with the business of Gaussian, Inc. or will provide
 assistance to any competitor of Gaussian, Inc.  The licensee
 of this program is prohibited from giving any competitor of
 Gaussian, Inc. access to this program.  By using this program,
 the user acknowledges that Gaussian, Inc. is engaged in the
 business of creating and licensing software in the field of
 computational chemistry and represents and warrants to the
 licensee that it is not a competitor of Gaussian, Inc. and that
 it will not use this program in any manner prohibited above.
 ---------------------------------------------------------------
  

 Cite this work as:
 Gaussian 16, Revision C.01,
 M. J. Frisch, G. W. Trucks, H. B. Schlegel, G. E. Scuseria, 
 M. A. Robb, J. R. Cheeseman, G. Scalmani, V. Barone, 
 G. A. Petersson, H. Nakatsuji, X. Li, M. Caricato, A. V. Marenich, 
 J. Bloino, B. G. Janesko, R. Gomperts, B. Mennucci, H. P. Hratchian, 
 J. V. Ortiz, A. F. Izmaylov, J. L. Sonnenberg, D. Williams-Young, 
 F. Ding, F. Lipparini, F. Egidi, J. Goings, B. Peng, A. Petrone, 
 T. Henderson, D. Ranasinghe, V. G. Zakrzewski, J. Gao, N. Rega, 
 G. Zheng, W. Liang, M. Hada, M. Ehara, K. Toyota, R. Fukuda, 
 J. Hasegawa, M. Ishida, T. Nakajima, Y. Honda, O. Kitao, H. Nakai, 
 T. Vreven, K. Throssell, J. A. Montgomery, Jr., J. E. Peralta, 
 F. Ogliaro, M. J. Bearpark, J. J. Heyd, E. N. Brothers, K. N. Kudin, 
 V. N. Staroverov, T. A. Keith, R. Kobayashi, J. Normand, 
 K. Raghavachari, A. P. Rendell, J. C. Burant, S. S. Iyengar, 
 J. Tomasi, M. Cossi, J. M. Millam, M. Klene, C. Adamo, R. Cammi, 
 J. W. Ochterski, R. L. Martin, K. Morokuma, O. Farkas, 
 J. B. Foresman, and D. J. Fox, Gaussian, Inc., Wallingford CT, 2019.
 
 ******************************************
 Gaussian 16:  ES64L-G16RevC.01  3-Jul-2019
                31-Jan-2025 
 ******************************************
 %nprocshared=32
 Will use up to   32 processors via shared memory.
 %mem=64GB
 ----------------------------------------------------------------------
 #p b3lyp def2tzvpp scf=maxcycle=128 nosymm scrf=(smd,solvent=propyleth
 anoate) empiricaldispersion=gd3bj
 ----------------------------------------------------------------------
 1/38=1,172=1/1;
 2/12=2,15=1,17=6,18=5,40=1/2;
 3/5=44,7=202,11=2,25=1,30=1,70=32201,72=169,74=-5,124=41/1,2,3;
 4//1;
 5/5=2,7=128,38=5,53=169/2;
 6/7=2,8=2,9=2,10=2,28=1/1;
 99/5=1,9=1/99;
 Leave Link    1 at Fri Jan 31 11:53:45 2025, MaxMem=  8589934592 cpu:               0.5 elap:               0.0
 (Enter /ihome/crc/install/gaussian/c01/avx2/tar/g16/l101.exe)
 -------------------
 Title Card Required
 -------------------
 Symbolic Z-matrix:
 Charge =  0 Multiplicity = 1
 C                    -1.76835  -1.97311   0.16163 
 C                    -0.69945  -2.30425   0.99836 
 C                    -0.56522  -1.62334   2.22764 
 C                    -1.5251   -0.67621   2.5534 
 C                    -2.59633  -0.41644   1.66399 
 N                    -2.67628  -1.05835   0.49709 
 H                    -1.42559  -0.13746   3.49369 
 C                    -2.01597  -2.63971  -1.15447 
 C                    -3.18654  -3.38257  -1.41306 
 C                    -3.39109  -3.90366  -2.69903 
 C                    -1.30737  -2.96233  -3.47481 
 C                    -2.46342  -3.69949  -3.71752 
 H                    -4.28596  -4.4971   -2.89251 
 H                    -2.6396   -4.12062  -4.70835 
 H                    -0.55974  -2.77338  -4.24557 
 C                    -1.11506  -2.44826  -2.20177 
 C                    -4.20759  -3.64235  -0.3584 
 C                    -5.57029  -3.49394  -0.65252 
 C                    -3.84072  -4.07784   0.92386 
 C                    -6.54182  -3.76978   0.30959 
 H                    -5.87022  -3.14587  -1.64323 
 C                    -4.81168  -4.34924   1.88597 
 H                    -2.78483  -4.22243   1.16323 
 C                    -6.16608  -4.19601   1.58281 
 H                    -7.59759  -3.64165   0.06391 
 H                    -4.50757  -4.69204   2.87667 
 H                    -6.92504  -4.40749   2.33794 
 F                    -0.01705  -1.71922  -1.96781 
 C                     0.56208  -1.90639   3.17718 
 H                     0.52906  -2.95302   3.51571 
 H                     1.5333   -1.76      2.68159 
 H                     0.50942  -1.25045   4.05473 
 C                    -4.75017   0.57214   1.06619 
 C                    -3.95904   0.81202   3.31736 
 C                    -5.80844  -0.3993    1.56991 
 H                    -4.46062   0.3382    0.03786 
 H                    -5.14307   1.60001   1.10787 
 C                    -5.05017  -0.15448   3.77082 
 H                    -3.09865   0.77238   3.9931 
 H                    -4.35147   1.84059   3.34187 
 H                    -5.4142   -1.43159   1.49164 
 H                    -6.72719  -0.3319    0.9703 
 H                    -4.63361  -1.18167   3.80382 
 H                    -5.40647   0.10721   4.7772 
 N                    -3.58236   0.50531   1.94184 
 O                    -6.16017  -0.10741   2.90705 
 I                     0.61776  -3.84864   0.50438 
 
 ITRead=  0  0  0  0  0  0  0  0  0  0  0  0  0  0  0  0  0  0  0  0
 ITRead=  0  0  0  0  0  0  0  0  0  0  0  0  0  0  0  0  0  0  0  0
 ITRead=  0  0  0  0  0  0  0
 MicOpt= -1 -1 -1 -1 -1 -1 -1 -1 -1 -1 -1 -1 -1 -1 -1 -1 -1 -1 -1 -1
 MicOpt= -1 -1 -1 -1 -1 -1 -1 -1 -1 -1 -1 -1 -1 -1 -1 -1 -1 -1 -1 -1
 MicOpt= -1 -1 -1 -1 -1 -1 -1
 NAtoms=     47 NQM=       47 NQMF=       0 NMMI=      0 NMMIF=      0
                NMic=       0 NMicF=      0.
                    Isotopes and Nuclear Properties:
 (Nuclear quadrupole moments (NQMom) in fm**2, nuclear magnetic moments (NMagM)
  in nuclear magnetons)

  Atom         1           2           3           4           5           6           7           8           9          10
 IAtWgt=          12          12          12          12          12          14           1          12          12          12
 AtmWgt=  12.0000000  12.0000000  12.0000000  12.0000000  12.0000000  14.0030740   1.0078250  12.0000000  12.0000000  12.0000000
 NucSpn=           0           0           0           0           0           2           1           0           0           0
 AtZEff=  -0.0000000  -0.0000000  -0.0000000  -0.0000000  -0.0000000  -0.0000000  -0.0000000  -0.0000000  -0.0000000  -0.0000000
 NQMom=    0.0000000   0.0000000   0.0000000   0.0000000   0.0000000   2.0440000   0.0000000   0.0000000   0.0000000   0.0000000
 NMagM=    0.0000000   0.0000000   0.0000000   0.0000000   0.0000000   0.4037610   2.7928460   0.0000000   0.0000000   0.0000000
 AtZNuc=   6.0000000   6.0000000   6.0000000   6.0000000   6.0000000   7.0000000   1.0000000   6.0000000   6.0000000   6.0000000

  Atom        11          12          13          14          15          16          17          18          19          20
 IAtWgt=          12          12           1           1           1          12          12          12          12          12
 AtmWgt=  12.0000000  12.0000000   1.0078250   1.0078250   1.0078250  12.0000000  12.0000000  12.0000000  12.0000000  12.0000000
 NucSpn=           0           0           1           1           1           0           0           0           0           0
 AtZEff=  -0.0000000  -0.0000000  -0.0000000  -0.0000000  -0.0000000  -0.0000000  -0.0000000  -0.0000000  -0.0000000  -0.0000000
 NQMom=    0.0000000   0.0000000   0.0000000   0.0000000   0.0000000   0.0000000   0.0000000   0.0000000   0.0000000   0.0000000
 NMagM=    0.0000000   0.0000000   2.7928460   2.7928460   2.7928460   0.0000000   0.0000000   0.0000000   0.0000000   0.0000000
 AtZNuc=   6.0000000   6.0000000   1.0000000   1.0000000   1.0000000   6.0000000   6.0000000   6.0000000   6.0000000   6.0000000

  Atom        21          22          23          24          25          26          27          28          29          30
 IAtWgt=           1          12           1          12           1           1           1          19          12           1
 AtmWgt=   1.0078250  12.0000000   1.0078250  12.0000000   1.0078250   1.0078250   1.0078250  18.9984032  12.0000000   1.0078250
 NucSpn=           1           0           1           0           1           1           1           1           0           1
 AtZEff=  -0.0000000  -0.0000000  -0.0000000  -0.0000000  -0.0000000  -0.0000000  -0.0000000  -0.0000000  -0.0000000  -0.0000000
 NQMom=    0.0000000   0.0000000   0.0000000   0.0000000   0.0000000   0.0000000   0.0000000   0.0000000   0.0000000   0.0000000
 NMagM=    2.7928460   0.0000000   2.7928460   0.0000000   2.7928460   2.7928460   2.7928460   2.6288670   0.0000000   2.7928460
 AtZNuc=   1.0000000   6.0000000   1.0000000   6.0000000   1.0000000   1.0000000   1.0000000   9.0000000   6.0000000   1.0000000

  Atom        31          32          33          34          35          36          37          38          39          40
 IAtWgt=           1           1          12          12          12           1           1          12           1           1
 AtmWgt=   1.0078250   1.0078250  12.0000000  12.0000000  12.0000000   1.0078250   1.0078250  12.0000000   1.0078250   1.0078250
 NucSpn=           1           1           0           0           0           1           1           0           1           1
 AtZEff=  -0.0000000  -0.0000000  -0.0000000  -0.0000000  -0.0000000  -0.0000000  -0.0000000  -0.0000000  -0.0000000  -0.0000000
 NQMom=    0.0000000   0.0000000   0.0000000   0.0000000   0.0000000   0.0000000   0.0000000   0.0000000   0.0000000   0.0000000
 NMagM=    2.7928460   2.7928460   0.0000000   0.0000000   0.0000000   2.7928460   2.7928460   0.0000000   2.7928460   2.7928460
 AtZNuc=   1.0000000   1.0000000   6.0000000   6.0000000   6.0000000   1.0000000   1.0000000   6.0000000   1.0000000   1.0000000

  Atom        41          42          43          44          45          46          47
 IAtWgt=           1           1           1           1          14          16         127
 AtmWgt=   1.0078250   1.0078250   1.0078250   1.0078250  14.0030740  15.9949146 126.9004000
 NucSpn=           1           1           1           1           2           0           5
 AtZEff=  -0.0000000  -0.0000000  -0.0000000  -0.0000000  -0.0000000  -0.0000000  -0.0000000
 NQMom=    0.0000000   0.0000000   0.0000000   0.0000000   2.0440000   0.0000000 -71.0000000
 NMagM=    2.7928460   2.7928460   2.7928460   2.7928460   0.4037610   0.0000000   2.8132800
 AtZNuc=   1.0000000   1.0000000   1.0000000   1.0000000   7.0000000   8.0000000  53.0000000
 Leave Link  101 at Fri Jan 31 11:53:45 2025, MaxMem=  8589934592 cpu:               2.7 elap:               0.1
 (Enter /ihome/crc/install/gaussian/c01/avx2/tar/g16/l202.exe)
                          Input orientation:                          
 ---------------------------------------------------------------------
 Center     Atomic      Atomic             Coordinates (Angstroms)
 Number     Number       Type             X           Y           Z
 ---------------------------------------------------------------------
      1          6           0       -1.768348   -1.973113    0.161633
      2          6           0       -0.699450   -2.304246    0.998357
      3          6           0       -0.565219   -1.623339    2.227643
      4          6           0       -1.525099   -0.676214    2.553400
      5          6           0       -2.596327   -0.416439    1.663985
      6          7           0       -2.676276   -1.058355    0.497089
      7          1           0       -1.425591   -0.137461    3.493686
      8          6           0       -2.015968   -2.639710   -1.154467
      9          6           0       -3.186539   -3.382568   -1.413062
     10          6           0       -3.391092   -3.903659   -2.699029
     11          6           0       -1.307373   -2.962326   -3.474809
     12          6           0       -2.463415   -3.699490   -3.717524
     13          1           0       -4.285963   -4.497097   -2.892512
     14          1           0       -2.639597   -4.120617   -4.708347
     15          1           0       -0.559742   -2.773376   -4.245568
     16          6           0       -1.115061   -2.448262   -2.201769
     17          6           0       -4.207589   -3.642350   -0.358399
     18          6           0       -5.570294   -3.493943   -0.652522
     19          6           0       -3.840720   -4.077840    0.923861
     20          6           0       -6.541815   -3.769781    0.309592
     21          1           0       -5.870220   -3.145874   -1.643228
     22          6           0       -4.811684   -4.349245    1.885973
     23          1           0       -2.784830   -4.222432    1.163229
     24          6           0       -6.166084   -4.196011    1.582813
     25          1           0       -7.597592   -3.641648    0.063909
     26          1           0       -4.507566   -4.692038    2.876674
     27          1           0       -6.925043   -4.407495    2.337935
     28          9           0       -0.017053   -1.719218   -1.967813
     29          6           0        0.562084   -1.906394    3.177177
     30          1           0        0.529061   -2.953020    3.515711
     31          1           0        1.533303   -1.760003    2.681589
     32          1           0        0.509423   -1.250450    4.054725
     33          6           0       -4.750165    0.572143    1.066191
     34          6           0       -3.959044    0.812020    3.317359
     35          6           0       -5.808444   -0.399298    1.569910
     36          1           0       -4.460615    0.338203    0.037864
     37          1           0       -5.143071    1.600009    1.107870
     38          6           0       -5.050170   -0.154477    3.770824
     39          1           0       -3.098650    0.772380    3.993100
     40          1           0       -4.351472    1.840586    3.341866
     41          1           0       -5.414197   -1.431586    1.491643
     42          1           0       -6.727190   -0.331902    0.970304
     43          1           0       -4.633607   -1.181674    3.803817
     44          1           0       -5.406466    0.107205    4.777196
     45          7           0       -3.582359    0.505305    1.941836
     46          8           0       -6.160168   -0.107413    2.907052
     47         53           0        0.617760   -3.848639    0.504383
 ---------------------------------------------------------------------
                    Distance matrix (angstroms):
                    1          2          3          4          5
     1  C    0.000000
     2  C    1.397247   0.000000
     3  C    2.416249   1.411664   0.000000
     4  C    2.731605   2.397987   1.387275   0.000000
     5  C    2.316429   2.757720   2.428933   1.416359   0.000000
     6  N    1.331783   2.389844   2.787577   2.387395   1.334202
     7  H    3.819644   3.383623   2.133293   1.088253   2.190036
     8  C    1.495923   2.545664   3.817899   4.224281   3.636402
     9  C    2.545092   3.628131   4.818811   5.081098   4.314451
    10  C    3.813619   4.844969   6.120254   6.440989   5.641653
    11  C    3.796676   4.562001   5.904374   6.450815   5.877937
    12  C    4.302482   5.224731   6.577124   7.024608   6.305294
    13  H    4.694324   5.728048   6.951144   7.202741   6.345731
    14  H    5.393288   6.295224   7.658159   8.114123   7.370849
    15  H    4.639458   5.266721   6.574578   7.180248   6.680243
    16  C    2.497643   3.230214   4.538999   5.091161   4.611562
    17  C    3.001113   3.992286   4.902130   4.946947   4.134332
    18  C    4.174993   5.278816   6.070032   5.880573   4.866386
    19  C    3.050507   3.608152   4.295734   4.425896   3.937278
    20  C    5.102538   6.062625   6.633689   6.306526   5.352211
    21  H    4.632305   5.867126   6.741275   6.526177   5.394984
    22  C    4.228622   4.677644   5.057644   4.973757   4.519297
    23  H    2.663807   2.838209   3.579795   4.011877   3.843419
    24  C    5.128461   5.814160   6.197107   5.905062   5.199511
    25  H    6.064128   7.088455   7.629521   7.201843   6.162375
    26  H    4.718826   4.871486   5.037882   5.012630   4.837788
    27  H    6.103606   6.706425   6.943418   6.567212   5.926257
    28  F    2.768761   3.099369   4.232202   4.878876   4.641104
    29  C    3.811676   2.548923   1.500849   2.501754   3.805953
    30  H    4.181883   2.875277   2.150493   3.213948   4.430709
    31  H    4.158905   2.848624   2.151404   3.247284   4.460328
    32  H    4.568003   3.451557   2.152238   2.592876   4.007106
    33  C    4.023405   4.968552   4.866506   3.764470   2.444109
    34  C    4.744968   5.070881   4.317002   2.953398   2.469768
    35  C    4.558784   5.482456   5.424232   4.403519   3.213540
    36  H    3.550465   4.695897   4.880255   3.996776   2.586373
    37  H    5.005129   5.916162   5.709693   4.512258   3.295638
    38  C    5.206155   5.588993   4.965254   3.765695   3.244802
    39  H    4.897711   4.918361   3.908271   2.578221   2.662780
    40  H    5.597384   6.000744   5.251284   3.865792   3.315114
    41  H    3.918468   4.820135   4.908264   4.101585   3.000103
    42  H    5.285607   6.342285   6.420171   5.448531   4.189555
    43  H    4.701233   4.960682   4.385336   3.388489   3.052044
    44  H    6.234344   6.500055   5.738700   4.541368   4.226484
    45  N    3.549974   4.134597   3.703504   2.449963   1.378068
    46  O    5.505111   6.187781   5.836359   4.683211   3.787040
    47  I    3.054274   2.089067   3.053035   4.342188   4.843039
                    6          7          8          9         10
     6  N    0.000000
     7  H    3.375182   0.000000
     8  C    2.379985   5.311791   0.000000
     9  C    3.051395   6.140670   1.410300   0.000000
    10  C    4.338420   7.509804   2.423676   1.402529   0.000000
    11  C    4.612480   7.520223   2.447483   2.821111   2.414504
    12  C    4.978340   8.109666   2.809378   2.435958   1.392696
    13  H    5.089738   8.244494   3.409335   2.153992   1.091054
    14  H    6.039483   9.198516   3.900264   3.420930   2.156194
    15  H    5.469352   8.221545   3.419556   3.910789   3.418460
    16  C    3.413659   6.154221   1.394678   2.405412   2.746956
    17  C    3.123109   5.904432   2.538152   1.490753   2.492689
    18  C    3.953357   6.755411   3.689837   2.504618   3.017446
    19  C    3.264254   5.288046   3.117272   2.524394   3.654837
    20  C    4.725397   7.036189   4.889153   3.791484   4.358529
    21  H    4.374925   7.429210   3.917952   2.703913   2.799112
    22  C    4.161601   5.638217   4.470214   3.802525   4.820671
    23  H    3.235260   4.895462   2.909961   2.739346   3.922526
    24  C    4.816891   6.526526   5.209437   4.302865   5.110795
    25  H    5.574980   7.882658   5.800245   4.658965   5.039555
    26  H    4.713778   5.533845   5.164321   4.675645   5.740777
    27  H    5.714672   7.057827   6.278611   5.394151   6.173627
    28  F    3.685641   5.857807   2.346167   3.622171   4.085413
    29  C    4.288242   2.679581   5.093844   6.107500   7.358428
    30  H    4.793331   3.427612   5.327842   6.187326   7.409069
    31  H    4.794258   3.470907   5.299673   6.455679   7.602367
    32  H    4.779367   2.301693   5.953430   6.935615   8.238127
    33  C    2.698781   4.177207   4.766881   4.922536   6.004729
    34  C    3.619077   2.711271   5.973877   6.369318   7.665319
    35  C    3.375763   4.793628   5.179242   4.967133   6.028928
    36  H    2.311953   4.623887   4.033103   4.191968   5.160219
    37  H    3.677639   4.746639   5.733425   5.916856   6.917534
    38  C    4.143635   3.635198   6.296130   6.384854   7.659498
    39  H    3.968889   1.968845   6.269929   6.818937   8.169177
    40  H    4.393506   3.535039   6.763479   7.158753   8.391132
    41  H    2.936776   4.646710   4.473189   4.148024   5.269329
    42  H    4.142653   5.874710   5.660057   5.246256   6.111547
    43  H    3.844581   3.387909   5.793314   5.844122   7.158216
    44  H    5.208818   4.189824   7.363806   7.444856   8.720247
    45  N    2.313723   2.733685   4.683139   5.150492   6.404153
    46  O    4.341626   4.770876   6.331102   6.183243   7.314876
    47  I    4.316991   5.184984   3.339134   4.285616   5.131839
                   11         12         13         14         15
    11  C    0.000000
    12  C    1.392392   0.000000
    13  H    3.400969   2.153718   0.000000
    14  H    2.153619   1.090925   2.479822   0.000000
    15  H    1.090286   2.181854   4.322811   2.520916   0.000000
    16  C    1.386318   2.383515   3.837899   3.376968   2.142707
    17  C    4.311113   3.785384   2.675531   4.648590   5.401110
    18  C    5.140079   4.369117   2.770087   5.042958   6.207643
    19  C    5.197164   4.856189   3.865064   5.759018   6.260147
    20  C    6.509459   5.732011   3.983883   6.366326   7.584689
    21  H    4.920158   4.026849   2.428247   4.558728   5.925547
    22  C    6.552993   6.110297   4.809591   6.946603   7.626150
    23  H    5.028135   4.919200   4.333345   5.874254   6.025435
    24  C    7.120997   6.484587   4.863542   7.212523   8.211272
    25  H    7.249197   6.376704   4.520963   6.898228   8.298001
    26  H    7.319459   6.974751   5.776731   7.832520   8.366177
    27  H    8.211865   7.554865   5.859210   8.252117   9.302146
    28  F    2.341213   3.601063   5.176415   4.489430   2.567865
    29  C    6.989906   7.739880   8.188799   8.794034   7.556937
    30  H    7.227721   7.863321   8.162962   8.890377   7.839338
    31  H    6.885946   7.789994   8.510355   8.808902   7.307070
    32  H    7.932537   8.674296   9.044365   9.744004   8.506308
    33  C    6.705667   6.808818   6.448566   7.734454   7.547644
    34  C    8.210395   8.490006   8.176558   9.512298   9.033725
    35  C    7.230349   7.073715   6.246848   7.956527   8.185652
    36  H    5.759800   5.864700   5.656654   6.761930   6.576209
    37  H    7.518539   7.651776   7.342506   8.533541   8.294136
    38  C    8.625065   8.679503   7.990144   9.666306   9.554324
    39  H    8.539694   8.936155   8.751500   9.993364   9.321700
    40  H    8.877024   9.170179   8.890331  10.162302   9.655828
    41  H    6.623807   6.402025   5.467274   7.305421   7.634247
    42  H    7.486827   7.176082   6.183024   7.956749   8.438218
    43  H    8.198350   8.223120   7.480221   9.223362   9.160922
    44  H    9.711857   9.762825   9.015517  10.747352  10.639490
    45  N    6.822028   7.138676   6.992139   8.155543   7.626921
    46  O    8.510482   8.393689   7.511119   9.300243   9.467423
    47  I    4.508398   5.228803   6.000491   6.152796   5.010463
                   16         17         18         19         20
    16  C    0.000000
    17  C    3.793097   0.000000
    18  C    4.831430   1.401962   0.000000
    19  C    4.455817   1.403009   2.411917   0.000000
    20  C    6.123970   2.431267   1.394849   2.787138   0.000000
    21  H    4.838405   2.159078   1.092065   3.402554   2.157268
    22  C    5.829956   2.429370   2.784060   1.393589   2.411246
    23  H    4.154398   2.162427   3.403889   1.092295   3.879243
    24  C    6.549085   2.812570   2.417558   2.419814   1.394252
    25  H    6.969984   3.416206   2.155233   3.878643   1.091533
    26  H    6.506474   3.414312   3.875571   2.152998   3.402740
    27  H    7.629115   3.903872   3.407749   3.409007   2.160490
    28  F    1.338605   4.883569   5.976464   5.342781   7.208599
    29  C    5.660344   6.185760   7.402227   5.401601   7.884202
    30  H    5.970552   6.157902   7.407354   5.203642   7.806637
    31  H    5.597742   6.763327   8.036413   6.110818   8.652925
    32  H    6.573996   6.888182   8.009644   6.059718   8.372157
    33  C    5.745989   4.481718   4.489949   4.740220   4.757600
    34  C    7.012735   5.780518   6.074323   5.445509   6.058900
    35  C    6.360162   4.098597   3.817427   4.221491   3.672382
    36  H    4.896231   4.008223   4.048872   4.546504   4.613108
    37  H    6.600536   5.523350   5.406463   5.828203   5.606102
    38  C    7.511218   5.470437   5.566736   4.996073   5.222600
    39  H    7.258344   6.297232   6.774389   5.787532   6.786372
    40  H    7.720134   6.616287   6.774796   6.413687   6.743034
    41  H    5.758254   3.125066   2.979115   3.130634   2.852354
    42  H    6.785058   4.367254   3.737710   4.729262   3.505698
    43  H    7.074707   4.853912   5.107145   4.160600   4.748596
    44  H    8.582105   6.470765   6.517434   5.900369   6.023249
    45  N    5.655137   4.783831   5.164936   4.701940   5.449675
    46  O    7.552002   5.193411   4.948445   5.007712   4.506150
    47  I    3.505279   4.906215   6.305256   4.484032   7.162658
                   21         22         23         24         25
    21  H    0.000000
    22  C    3.876062   0.000000
    23  H    4.307529   2.155592   0.000000
    24  C    3.405534   1.396347   3.407290   0.000000
    25  H    2.478694   3.403218   4.970764   2.159538   0.000000
    26  H    4.967591   1.091551   2.474721   2.161204   4.308506
    27  H    4.307435   2.161932   4.307615   1.091308   2.491995
    28  F    6.033263   6.690082   4.871354   7.520108   8.080112
    29  C    8.133090   6.042525   4.541129   7.283721   8.904148
    30  H    8.222083   5.755784   4.257635   7.078565   8.856164
    31  H    8.685438   6.898988   5.197619   8.149970   9.683289
    32  H    8.761230   6.528414   5.295803   7.703835   9.347092
    33  C    4.734884   4.989578   5.182654   5.000702   5.183478
    34  C    6.627589   5.423515   5.600425   5.741084   6.607505
    35  C    4.227499   4.086014   4.891215   3.813542   3.997740
    36  H    4.117262   5.050834   4.987393   5.084741   5.067595
    37  H    5.533597   6.009067   6.282132   5.904742   5.881284
    38  C    6.239623   4.604956   5.336626   4.729340   5.691304
    39  H    7.402872   5.797026   5.749330   6.316925   7.427157
    40  H    7.212665   6.375377   6.630310   6.544279   7.164997
    41  H    3.601966   3.005204   3.848408   2.866303   3.419066
    42  H    3.934893   4.543859   5.542170   3.952385   3.540278
    43  H    5.920945   3.707202   4.431353   4.045686   5.368761
    44  H    7.212450   5.345361   6.219284   5.412834   6.408588
    45  N    5.605185   5.008095   4.857343   5.376514   6.070084
    46  O    5.479175   4.566634   5.600643   4.297706   4.758200
    47  I    6.870225   5.624790   3.485888   6.877806   8.229755
                   26         27         28         29         30
    26  H    0.000000
    27  H    2.493070   0.000000
    28  F    7.243716   8.572434   0.000000
    29  C    5.792363   7.938319   5.180864   0.000000
    30  H    5.366578   7.685462   5.647083   1.100510   0.000000
    31  H    6.717662   8.869663   4.901245   1.100138   1.768488
    32  H    6.196976   8.257456   6.063653   1.096871   1.785964
    33  C    5.572101   5.580701   6.071068   6.230521   6.804201
    34  C    5.548850   6.082743   7.062542   5.277312   5.861566
    35  C    4.671994   4.231111   6.913601   6.740792   7.104337
    36  H    5.776190   5.821115   5.291594   6.334115   6.915521
    37  H    6.566764   6.385811   6.837628   7.008972   7.661648
    38  C    4.656542   4.863793   7.791831   5.909232   6.246979
    39  H    5.752505   6.649207   7.157987   4.608962   5.221761
    40  H    6.551026   6.831520   7.723476   6.181425   6.843134
    41  H    3.656616   3.443095   6.417144   6.227552   6.460180
    42  H    5.250882   4.303489   7.455408   7.777071   8.124194
    43  H    3.632924   4.219646   7.410347   5.283285   5.465694
    44  H    5.239536   5.351503   8.824780   6.499095   6.796087
    45  N    5.361185   5.955337   5.739797   4.951643   5.598292
    46  O    4.873480   4.404501   8.006253   6.964049   7.294774
    47  I    5.710346   7.782552   3.324030   3.304428   3.142944
                   31         32         33         34         35
    31  H    0.000000
    32  H    1.787030   0.000000
    33  C    6.894228   6.317946   0.000000
    34  C    6.097982   4.976413   2.398160   0.000000
    35  C    7.549079   6.842091   1.522296   2.818005   0.000000
    36  H    6.878866   6.584851   1.093629   3.351293   2.169727
    37  H    7.638078   6.982819   1.101191   2.627677   2.157181
    38  C    6.863400   5.673696   2.816562   1.526533   2.340713
    39  H    5.439486   4.136886   3.366659   1.094749   3.819380
    40  H    6.930424   5.804392   2.635640   1.101158   3.206193
    41  H    7.056315   6.456893   2.153341   3.237974   1.107779
    42  H    8.555917   7.919972   2.176033   3.805241   1.099165
    43  H    6.294810   5.149606   3.253315   2.160207   2.642479
    44  H    7.485882   6.112523   3.797164   2.173228   3.271821
    45  N    5.643479   4.928454   1.461161   1.458777   2.431479
    46  O    7.872191   6.863463   2.416335   2.420466   1.413101
    47  I    3.152911   4.400824   6.976644   7.112082   7.370848
                   36         37         38         39         40
    36  H    0.000000
    37  H    1.789641   0.000000
    38  C    3.811207   3.190325   0.000000
    39  H    4.205633   3.631691   2.171843   0.000000
    40  H    3.631184   2.382277   2.156956   1.770518   0.000000
    41  H    2.480916   3.067794   2.637838   4.059127   3.906382
    42  H    2.540836   2.502127   3.269065   4.850055   3.998506
    43  H    4.064770   3.907102   1.108940   2.492037   3.070351
    44  H    4.838312   3.970113   1.099186   2.526515   2.485517
    45  N    2.103418   2.080793   2.436181   2.124379   2.081969
    46  O    3.364416   2.680827   1.407271   3.365476   2.693538
    47  I    6.598271   7.952304   7.512782   6.880165   8.069192
                   41         42         43         44         45
    41  H    0.000000
    42  H    1.790265   0.000000
    43  H    2.453146   3.624086   0.000000
    44  H    3.628057   4.053339   1.790527   0.000000
    45  N    2.703674   3.396285   2.723599   3.394866   0.000000
    46  O    2.076846   2.030493   2.070897   2.027700   2.819958
    47  I    6.572772   8.156765   6.750987   8.378361   6.218046
                   46         47
    46  O    0.000000
    47  I    8.106164   0.000000
 Symmetry turned off by external request.
 Stoichiometry    C22H20FIN2O
 Framework group  C1[X(C22H20FIN2O)]
 Deg. of freedom   135
 Full point group                 C1      NOp   1
 Rotational constants (GHZ):           0.2111086           0.1258258           0.1011040
 Leave Link  202 at Fri Jan 31 11:53:45 2025, MaxMem=  8589934592 cpu:               0.2 elap:               0.0
 (Enter /ihome/crc/install/gaussian/c01/avx2/tar/g16/l301.exe)
 Standard basis: def2TZVPP (5D, 7F)
 Ernie: Thresh=  0.10000D-02 Tol=  0.10000D-05 Strict=F.
  1136 basis functions,  1775 primitive gaussians,  1295 cartesian basis functions
   104 alpha electrons      104 beta electrons
       nuclear repulsion energy      2848.8521231502 Hartrees.
 IExCor=  402 DFT=T Ex+Corr=B3LYP ExCW=0 ScaHFX=  0.200000
 ScaDFX=  0.800000  0.720000  1.000000  0.810000 ScalE2=  1.000000  1.000000
 IRadAn=      5 IRanWt=     -1 IRanGd=            0 ICorTp=0 IEmpDi=141
 NAtoms=   47 NActive=   47 NUniq=   47 SFac= 1.00D+00 NAtFMM=   60 NAOKFM=F Big=F
 Integral buffers will be    131072 words long.
 Raffenetti 2 integral format.
 Two-electron integral symmetry is turned off.
 R6Disp:  Grimme-D3(BJ) Dispersion energy=       -0.1261039775 Hartrees.
 Nuclear repulsion after empirical dispersion term =     2848.7260191727 Hartrees.
 ------------------------------------------------------------------------------
 Polarizable Continuum Model (PCM)
 =================================
 Model                : PCM.
 Atomic radii         : SMD-Coulomb.
 Polarization charges : Total charges.
 Charge compensation  : None.
 Solution method      : On-the-fly selection.
 Cavity type          : VdW (van der Waals Surface) (Alpha=1.000).
 Cavity algorithm     : GePol (No added spheres)
                        Default sphere list used, NSphG=   47.
                        Lebedev-Laikov grids with approx.  5.0 points / Ang**2.
                        Smoothing algorithm: York/Karplus (Gamma=1.0000).
                        Polarization charges: spherical gaussians, with
                                              point-specific exponents (IZeta= 3).
                        Self-potential: point-specific (ISelfS= 7).
                        Self-field    : sphere-specific E.n sum rule (ISelfD= 2).
 Solvent              : PropylEthanoate, Eps=   5.520500 Eps(inf)=   1.916010
 ------------------------------------------------------------------------------
 GePol: Number of generator spheres                  =      47
 GePol: Total number of spheres                      =      47
 GePol: Number of exposed spheres                    =      47 (100.00%)
 GePol: Number of points                             =    3530
 GePol: Average weight of points                     =       0.11
 GePol: Minimum weight of points                     =   0.28D-11
 GePol: Maximum weight of points                     =    0.21501
 GePol: Number of points with low weight             =     242
 GePol: Fraction of low-weight points (<1% of avg)   =       6.86%
 GePol: Cavity surface area                          =    397.015 Ang**2
 GePol: Cavity volume                                =    393.649 Ang**3
 ------------------------------------------------------------------------------
 Atomic radii for non-electrostatic terms: SMD-CDS.
 ------------------------------------------------------------------------------
 PCM non-electrostatic energy =        -0.0089428289 Hartrees.
 Nuclear repulsion after PCM non-electrostatic terms =     2848.7170763438 Hartrees.
 Leave Link  301 at Fri Jan 31 11:53:45 2025, MaxMem=  8589934592 cpu:               1.4 elap:               0.0
 (Enter /ihome/crc/install/gaussian/c01/avx2/tar/g16/l302.exe)
 NPDir=0 NMtPBC=     1 NCelOv=     1 NCel=       1 NClECP=     1 NCelD=      1
         NCelK=      1 NCelE2=     1 NClLst=     1 CellRange=     0.0.
 One-electron integrals computed using PRISM.
   1 Symmetry operations used in ECPInt.
 ECPInt:  NShTT=   89253 NPrTT=  253783 LenC2=   76542 LenP2D=  155174.
 LDataN:  DoStor=T MaxTD1= 7 Len=  274
 NBasis=  1136 RedAO= T EigKep=  6.25D-06  NBF=  1136
 NBsUse=  1136 1.00D-06 EigRej= -1.00D+00 NBFU=  1136
 Precomputing XC quadrature grid using
 IXCGrd= 4 IRadAn=           5 IRanWt=          -1 IRanGd=           0 AccXCQ= 0.00D+00.
 Defaulting to unpruned grid for atomic number  53.
 Generated NRdTot=       0 NPtTot=           0 NUsed=           0 NTot=          32
 NSgBfM=  1278  1278  1278  1278  1278 MxSgAt=    47 MxSgA2=    47.
 Leave Link  302 at Fri Jan 31 11:53:47 2025, MaxMem=  8589934592 cpu:              36.7 elap:               1.2
 (Enter /ihome/crc/install/gaussian/c01/avx2/tar/g16/l303.exe)
 DipDrv:  MaxL=1.
 Leave Link  303 at Fri Jan 31 11:53:47 2025, MaxMem=  8589934592 cpu:               6.1 elap:               0.2
 (Enter /ihome/crc/install/gaussian/c01/avx2/tar/g16/l401.exe)
 ExpMin= 7.49D-02 ExpMax= 3.55D+04 ExpMxC= 1.21D+03 IAcc=3 IRadAn=         5 AccDes= 0.00D+00
 Harris functional with IExCor=  402 and IRadAn=       5 diagonalized for initial guess.
 HarFok:  IExCor=  402 AccDes= 0.00D+00 IRadAn=         5 IDoV= 1 UseB2=F ITyADJ=14
 ICtDFT=  3500011 ScaDFX=  1.000000  1.000000  1.000000  1.000000
 Defaulting to unpruned grid for atomic number  53.
 FoFCou: FMM=F IPFlag=           0 FMFlag=      100000 FMFlg1=           0
         NFxFlg=           0 DoJE=T BraDBF=F KetDBF=T FulRan=T
         wScrn=  0.000000 ICntrl=       500 IOpCl=  0 I1Cent=   200000004 NGrid=           0
         NMat0=    1 NMatS0=      1 NMatT0=    0 NMatD0=    1 NMtDS0=    0 NMtDT0=    0
 Symmetry not used in FoFCou.
 Harris En= -1433.27805446551    
 JPrj=0 DoOrth=F DoCkMO=F.
 Leave Link  401 at Fri Jan 31 11:53:49 2025, MaxMem=  8589934592 cpu:              66.4 elap:               2.1
 (Enter /ihome/crc/install/gaussian/c01/avx2/tar/g16/l502.exe)
 Two-electron integral symmetry not used.
 Closed shell SCF:
 Using DIIS extrapolation, IDIIS=  1040.
 NGot=  8589934592 LenX=  8586529923 LenY=  8584851603
 Requested convergence on RMS density matrix=1.00D-08 within 128 cycles.
 Requested convergence on MAX density matrix=1.00D-06.
 Requested convergence on             energy=1.00D-06.
 No special actions if energy rises.
 Fock matrices will be formed incrementally for  20 cycles.

 Cycle   1  Pass 1  IDiag  1:
 FoFJK:  IHMeth= 1 ICntrl=       0 DoSepK=F KAlg= 0 I1Cent=           0 FoldK=F
 IRaf= 780000000 NMat=       1 IRICut=       1 DoRegI=T DoRafI=F ISym2E= 0 IDoP0=0 IntGTp=1.
 FoFCou: FMM=F IPFlag=           0 FMFlag=      100000 FMFlg1=           0
         NFxFlg=           0 DoJE=F BraDBF=F KetDBF=F FulRan=T
         wScrn=  0.000000 ICntrl=         0 IOpCl=  0 I1Cent=           0 NGrid=           0
         NMat0=    1 NMatS0=      1 NMatT0=    0 NMatD0=    1 NMtDS0=    0 NMtDT0=    0
 Symmetry not used in FoFCou.
 Defaulting to unpruned grid for atomic number  53.
 Defaulting to unpruned grid for atomic number  53.
 Defaulting to unpruned grid for atomic number  53.
 Defaulting to unpruned grid for atomic number  53.
 Defaulting to unpruned grid for atomic number  53.
 Defaulting to unpruned grid for atomic number  53.
 Defaulting to unpruned grid for atomic number  53.
 Defaulting to unpruned grid for atomic number  53.
 Defaulting to unpruned grid for atomic number  53.
 Defaulting to unpruned grid for atomic number  53.
 Defaulting to unpruned grid for atomic number  53.
 Defaulting to unpruned grid for atomic number  53.
 Defaulting to unpruned grid for atomic number  53.
 Defaulting to unpruned grid for atomic number  53.
 Defaulting to unpruned grid for atomic number  53.
 Defaulting to unpruned grid for atomic number  53.
 Defaulting to unpruned grid for atomic number  53.
 Defaulting to unpruned grid for atomic number  53.
 Defaulting to unpruned grid for atomic number  53.
 Defaulting to unpruned grid for atomic number  53.
 Defaulting to unpruned grid for atomic number  53.
 Defaulting to unpruned grid for atomic number  53.
 Defaulting to unpruned grid for atomic number  53.
 Defaulting to unpruned grid for atomic number  53.
 Defaulting to unpruned grid for atomic number  53.
 Defaulting to unpruned grid for atomic number  53.
 Defaulting to unpruned grid for atomic number  53.
 Defaulting to unpruned grid for atomic number  53.
 Defaulting to unpruned grid for atomic number  53.
 Defaulting to unpruned grid for atomic number  53.
 Defaulting to unpruned grid for atomic number  53.
 Defaulting to unpruned grid for atomic number  53.
 Inv3:  Mode=1 IEnd=    37382700.
 Iteration    1 A*A^-1 deviation from unit magnitude is 3.11D-15 for    571.
 Iteration    1 A*A^-1 deviation from orthogonality  is 2.44D-15 for   2471    864.
 Iteration    1 A^-1*A deviation from unit magnitude is 3.55D-15 for    874.
 Iteration    1 A^-1*A deviation from orthogonality  is 1.53D-14 for   3504   3386.
 E= -1432.71678291952    
 DIIS: error= 1.22D-02 at cycle   1 NSaved=   1.
 NSaved= 1 IEnMin= 1 EnMin= -1432.71678291952     IErMin= 1 ErrMin= 1.22D-02
 ErrMax= 1.22D-02  0.00D+00 EMaxC= 1.00D-01 BMatC= 6.59D-01 BMatP= 6.59D-01
 IDIUse=3 WtCom= 8.78D-01 WtEn= 1.22D-01
 Coeff-Com:  0.100D+01
 Coeff-En:   0.100D+01
 Coeff:      0.100D+01
 Gap=     0.299 Goal=   None    Shift=    0.000
 GapD=    0.299 DampG=1.000 DampE=0.500 DampFc=0.5000 IDamp=-1.
 Damping current iteration by 5.00D-01
 RMSDP=2.39D-03 MaxDP=2.69D-01              OVMax= 1.82D-01

 Cycle   2  Pass 1  IDiag  1:
 RMSU=  1.19D-03    CP:  1.01D+00
 E= -1432.98494613121     Delta-E=       -0.268163211687 Rises=F Damp=T
 DIIS: error= 2.40D-03 at cycle   2 NSaved=   2.
 NSaved= 2 IEnMin= 2 EnMin= -1432.98494613121     IErMin= 2 ErrMin= 2.40D-03
 ErrMax= 2.40D-03  0.00D+00 EMaxC= 1.00D-01 BMatC= 4.44D-02 BMatP= 6.59D-01
 IDIUse=3 WtCom= 9.76D-01 WtEn= 2.40D-02
 Coeff-Com:  0.196D-01 0.980D+00
 Coeff-En:   0.892D-01 0.911D+00
 Coeff:      0.213D-01 0.979D+00
 Gap=     0.184 Goal=   None    Shift=    0.000
 RMSDP=7.43D-04 MaxDP=8.27D-02 DE=-2.68D-01 OVMax= 1.50D-01

 Cycle   3  Pass 1  IDiag  1:
 RMSU=  6.35D-04    CP:  9.98D-01  6.80D-01
 E= -1433.29164836563     Delta-E=       -0.306702234425 Rises=F Damp=F
 DIIS: error= 2.51D-03 at cycle   3 NSaved=   3.
 NSaved= 3 IEnMin= 3 EnMin= -1433.29164836563     IErMin= 2 ErrMin= 2.40D-03
 ErrMax= 2.51D-03  0.00D+00 EMaxC= 1.00D-01 BMatC= 3.07D-02 BMatP= 4.44D-02
 IDIUse=3 WtCom= 9.75D-01 WtEn= 2.51D-02
 Coeff-Com: -0.591D-01 0.460D+00 0.600D+00
 Coeff-En:   0.000D+00 0.000D+00 0.100D+01
 Coeff:     -0.576D-01 0.448D+00 0.610D+00
 Gap=     0.155 Goal=   None    Shift=    0.000
 RMSDP=3.60D-04 MaxDP=6.38D-02 DE=-3.07D-01 OVMax= 4.06D-02

 Cycle   4  Pass 1  IDiag  1:
 RMSU=  3.05D-04    CP:  9.95D-01  6.70D-01  7.01D-01
 E= -1433.31369867604     Delta-E=       -0.022050310404 Rises=F Damp=F
 DIIS: error= 9.63D-04 at cycle   4 NSaved=   4.
 NSaved= 4 IEnMin= 4 EnMin= -1433.31369867604     IErMin= 4 ErrMin= 9.63D-04
 ErrMax= 9.63D-04  0.00D+00 EMaxC= 1.00D-01 BMatC= 6.56D-03 BMatP= 3.07D-02
 IDIUse=3 WtCom= 9.90D-01 WtEn= 9.63D-03
 Coeff-Com: -0.369D-01 0.142D+00 0.357D+00 0.538D+00
 Coeff-En:   0.000D+00 0.000D+00 0.171D+00 0.829D+00
 Coeff:     -0.366D-01 0.140D+00 0.355D+00 0.541D+00
 Gap=     0.153 Goal=   None    Shift=    0.000
 RMSDP=1.33D-04 MaxDP=2.05D-02 DE=-2.21D-02 OVMax= 2.38D-02

 Cycle   5  Pass 1  IDiag  1:
 RMSU=  6.55D-05    CP:  9.96D-01  7.10D-01  7.81D-01  6.98D-01
 E= -1433.31960916936     Delta-E=       -0.005910493323 Rises=F Damp=F
 DIIS: error= 3.89D-04 at cycle   5 NSaved=   5.
 NSaved= 5 IEnMin= 5 EnMin= -1433.31960916936     IErMin= 5 ErrMin= 3.89D-04
 ErrMax= 3.89D-04  0.00D+00 EMaxC= 1.00D-01 BMatC= 4.32D-04 BMatP= 6.56D-03
 IDIUse=3 WtCom= 9.96D-01 WtEn= 3.89D-03
 Coeff-Com: -0.145D-01 0.360D-01 0.134D+00 0.281D+00 0.563D+00
 Coeff-En:   0.000D+00 0.000D+00 0.000D+00 0.000D+00 0.100D+01
 Coeff:     -0.144D-01 0.359D-01 0.133D+00 0.280D+00 0.565D+00
 Gap=     0.154 Goal=   None    Shift=    0.000
 RMSDP=3.46D-05 MaxDP=4.88D-03 DE=-5.91D-03 OVMax= 7.23D-03

 Cycle   6  Pass 1  IDiag  1:
 RMSU=  2.19D-05    CP:  9.96D-01  7.08D-01  8.00D-01  6.57D-01  6.94D-01
 E= -1433.31996384671     Delta-E=       -0.000354677348 Rises=F Damp=F
 DIIS: error= 9.82D-05 at cycle   6 NSaved=   6.
 NSaved= 6 IEnMin= 6 EnMin= -1433.31996384671     IErMin= 6 ErrMin= 9.82D-05
 ErrMax= 9.82D-05  0.00D+00 EMaxC= 1.00D-01 BMatC= 5.87D-05 BMatP= 4.32D-04
 IDIUse=1 WtCom= 1.00D+00 WtEn= 0.00D+00
 Coeff-Com: -0.555D-02 0.966D-02 0.517D-01 0.126D+00 0.335D+00 0.483D+00
 Coeff:     -0.555D-02 0.966D-02 0.517D-01 0.126D+00 0.335D+00 0.483D+00
 Gap=     0.154 Goal=   None    Shift=    0.000
 RMSDP=1.28D-05 MaxDP=2.29D-03 DE=-3.55D-04 OVMax= 2.59D-03

 Cycle   7  Pass 1  IDiag  1:
 RMSU=  6.29D-06    CP:  9.96D-01  7.07D-01  7.96D-01  6.81D-01  7.48D-01
                    CP:  6.68D-01
 E= -1433.32001208275     Delta-E=       -0.000048236039 Rises=F Damp=F
 DIIS: error= 3.47D-05 at cycle   7 NSaved=   7.
 NSaved= 7 IEnMin= 7 EnMin= -1433.32001208275     IErMin= 7 ErrMin= 3.47D-05
 ErrMax= 3.47D-05  0.00D+00 EMaxC= 1.00D-01 BMatC= 4.01D-06 BMatP= 5.87D-05
 IDIUse=1 WtCom= 1.00D+00 WtEn= 0.00D+00
 Coeff-Com: -0.171D-02 0.220D-02 0.168D-01 0.440D-01 0.132D+00 0.265D+00
 Coeff-Com:  0.541D+00
 Coeff:     -0.171D-02 0.220D-02 0.168D-01 0.440D-01 0.132D+00 0.265D+00
 Coeff:      0.541D+00
 Gap=     0.154 Goal=   None    Shift=    0.000
 RMSDP=2.95D-06 MaxDP=1.90D-04 DE=-4.82D-05 OVMax= 7.05D-04

 Cycle   8  Pass 1  IDiag  1:
 RMSU=  2.34D-06    CP:  9.96D-01  7.06D-01  7.97D-01  6.82D-01  7.44D-01
                    CP:  7.03D-01  8.41D-01
 E= -1433.32001530354     Delta-E=       -0.000003220794 Rises=F Damp=F
 DIIS: error= 1.15D-05 at cycle   8 NSaved=   8.
 NSaved= 8 IEnMin= 8 EnMin= -1433.32001530354     IErMin= 8 ErrMin= 1.15D-05
 ErrMax= 1.15D-05  0.00D+00 EMaxC= 1.00D-01 BMatC= 6.23D-07 BMatP= 4.01D-06
 IDIUse=1 WtCom= 1.00D+00 WtEn= 0.00D+00
 Coeff-Com: -0.193D-03-0.171D-03 0.243D-02 0.762D-02 0.279D-01 0.829D-01
 Coeff-Com:  0.322D+00 0.557D+00
 Coeff:     -0.193D-03-0.171D-03 0.243D-02 0.762D-02 0.279D-01 0.829D-01
 Coeff:      0.322D+00 0.557D+00
 Gap=     0.154 Goal=   None    Shift=    0.000
 RMSDP=1.25D-06 MaxDP=1.63D-04 DE=-3.22D-06 OVMax= 2.13D-04

 Cycle   9  Pass 1  IDiag  1:
 RMSU=  7.95D-07    CP:  9.96D-01  7.07D-01  7.97D-01  6.80D-01  7.44D-01
                    CP:  7.16D-01  8.94D-01  8.38D-01
 E= -1433.32001586406     Delta-E=       -0.000000560521 Rises=F Damp=F
 DIIS: error= 3.07D-06 at cycle   9 NSaved=   9.
 NSaved= 9 IEnMin= 9 EnMin= -1433.32001586406     IErMin= 9 ErrMin= 3.07D-06
 ErrMax= 3.07D-06  0.00D+00 EMaxC= 1.00D-01 BMatC= 4.76D-08 BMatP= 6.23D-07
 IDIUse=1 WtCom= 1.00D+00 WtEn= 0.00D+00
 Coeff-Com:  0.452D-04-0.281D-03-0.252D-03 0.233D-04 0.273D-02 0.189D-01
 Coeff-Com:  0.119D+00 0.290D+00 0.570D+00
 Coeff:      0.452D-04-0.281D-03-0.252D-03 0.233D-04 0.273D-02 0.189D-01
 Coeff:      0.119D+00 0.290D+00 0.570D+00
 Gap=     0.154 Goal=   None    Shift=    0.000
 RMSDP=3.01D-07 MaxDP=2.00D-05 DE=-5.61D-07 OVMax= 5.44D-05

 Cycle  10  Pass 1  IDiag  1:
 RMSU=  2.05D-07    CP:  9.96D-01  7.07D-01  7.97D-01  6.80D-01  7.45D-01
                    CP:  7.19D-01  9.07D-01  8.86D-01  8.57D-01
 E= -1433.32001589954     Delta-E=       -0.000000035475 Rises=F Damp=F
 DIIS: error= 1.30D-06 at cycle  10 NSaved=  10.
 NSaved=10 IEnMin=10 EnMin= -1433.32001589954     IErMin=10 ErrMin= 1.30D-06
 ErrMax= 1.30D-06  0.00D+00 EMaxC= 1.00D-01 BMatC= 6.85D-09 BMatP= 4.76D-08
 IDIUse=1 WtCom= 1.00D+00 WtEn= 0.00D+00
 Coeff-Com:  0.441D-04-0.114D-03-0.442D-03-0.959D-03-0.204D-02-0.333D-03
 Coeff-Com:  0.229D-01 0.839D-01 0.317D+00 0.580D+00
 Coeff:      0.441D-04-0.114D-03-0.442D-03-0.959D-03-0.204D-02-0.333D-03
 Coeff:      0.229D-01 0.839D-01 0.317D+00 0.580D+00
 Gap=     0.154 Goal=   None    Shift=    0.000
 RMSDP=9.87D-08 MaxDP=8.48D-06 DE=-3.55D-08 OVMax= 1.52D-05

 Cycle  11  Pass 1  IDiag  1:
 RMSU=  7.09D-08    CP:  9.96D-01  7.07D-01  7.97D-01  6.80D-01  7.45D-01
                    CP:  7.20D-01  9.13D-01  8.88D-01  8.79D-01  8.00D-01
 E= -1433.32001590555     Delta-E=       -0.000000006011 Rises=F Damp=F
 DIIS: error= 2.98D-07 at cycle  11 NSaved=  11.
 NSaved=11 IEnMin=11 EnMin= -1433.32001590555     IErMin=11 ErrMin= 2.98D-07
 ErrMax= 2.98D-07  0.00D+00 EMaxC= 1.00D-01 BMatC= 2.94D-10 BMatP= 6.85D-09
 IDIUse=1 WtCom= 1.00D+00 WtEn= 0.00D+00
 Coeff-Com:  0.132D-04-0.253D-04-0.160D-03-0.378D-03-0.960D-03-0.119D-02
 Coeff-Com:  0.229D-02 0.167D-01 0.101D+00 0.251D+00 0.632D+00
 Coeff:      0.132D-04-0.253D-04-0.160D-03-0.378D-03-0.960D-03-0.119D-02
 Coeff:      0.229D-02 0.167D-01 0.101D+00 0.251D+00 0.632D+00
 Gap=     0.154 Goal=   None    Shift=    0.000
 RMSDP=2.77D-08 MaxDP=3.16D-06 DE=-6.01D-09 OVMax= 5.79D-06

 Cycle  12  Pass 1  IDiag  1:
 RMSU=  1.96D-08    CP:  9.96D-01  7.07D-01  7.97D-01  6.80D-01  7.46D-01
                    CP:  7.21D-01  9.14D-01  8.91D-01  8.83D-01  8.31D-01
                    CP:  9.37D-01
 E= -1433.32001590576     Delta-E=       -0.000000000217 Rises=F Damp=F
 DIIS: error= 9.89D-08 at cycle  12 NSaved=  12.
 NSaved=12 IEnMin=12 EnMin= -1433.32001590576     IErMin=12 ErrMin= 9.89D-08
 ErrMax= 9.89D-08  0.00D+00 EMaxC= 1.00D-01 BMatC= 4.15D-11 BMatP= 2.94D-10
 IDIUse=1 WtCom= 1.00D+00 WtEn= 0.00D+00
 Coeff-Com:  0.768D-06 0.177D-05-0.236D-04-0.626D-04-0.217D-03-0.467D-03
 Coeff-Com: -0.171D-02-0.218D-02 0.808D-02 0.446D-01 0.304D+00 0.648D+00
 Coeff:      0.768D-06 0.177D-05-0.236D-04-0.626D-04-0.217D-03-0.467D-03
 Coeff:     -0.171D-02-0.218D-02 0.808D-02 0.446D-01 0.304D+00 0.648D+00
 Gap=     0.154 Goal=   None    Shift=    0.000
 RMSDP=1.01D-08 MaxDP=6.83D-07 DE=-2.17D-10 OVMax= 1.60D-06

 Cycle  13  Pass 1  IDiag  1:
 RMSU=  6.99D-09    CP:  9.96D-01  7.07D-01  7.97D-01  6.80D-01  7.46D-01
                    CP:  7.21D-01  9.14D-01  8.92D-01  8.87D-01  8.38D-01
                    CP:  9.86D-01  8.05D-01
 E= -1433.32001590582     Delta-E=       -0.000000000054 Rises=F Damp=F
 DIIS: error= 2.86D-08 at cycle  13 NSaved=  13.
 NSaved=13 IEnMin=13 EnMin= -1433.32001590582     IErMin=13 ErrMin= 2.86D-08
 ErrMax= 2.86D-08  0.00D+00 EMaxC= 1.00D-01 BMatC= 4.25D-12 BMatP= 4.15D-11
 IDIUse=1 WtCom= 1.00D+00 WtEn= 0.00D+00
 Coeff-Com: -0.593D-06 0.280D-05 0.153D-06-0.251D-05-0.415D-04-0.138D-03
 Coeff-Com: -0.114D-02-0.258D-02-0.455D-02-0.283D-03 0.956D-01 0.317D+00
 Coeff-Com:  0.596D+00
 Coeff:     -0.593D-06 0.280D-05 0.153D-06-0.251D-05-0.415D-04-0.138D-03
 Coeff:     -0.114D-02-0.258D-02-0.455D-02-0.283D-03 0.956D-01 0.317D+00
 Coeff:      0.596D+00
 Gap=     0.154 Goal=   None    Shift=    0.000
 RMSDP=4.17D-09 MaxDP=7.02D-07 DE=-5.37D-11 OVMax= 4.39D-07

 Error on total polarization charges =  0.06798
 SCF Done:  E(RB3LYP) =  -1433.32001591     A.U. after   13 cycles
            NFock= 13  Conv=0.42D-08     -V/T= 2.1531
 KE= 1.242967902722D+03 PE=-8.974452217955D+03 EE= 3.449447222984D+03
 SMD-CDS (non-electrostatic) energy       (kcal/mol) =      -5.61
 (included in total energy above)
 Leave Link  502 at Fri Jan 31 11:59:13 2025, MaxMem=  8589934592 cpu:           10315.2 elap:             323.6
 (Enter /ihome/crc/install/gaussian/c01/avx2/tar/g16/l601.exe)
 Copying SCF densities to generalized density rwf, IOpCl= 0 IROHF=0.

 **********************************************************************

            Population analysis using the SCF Density.

 **********************************************************************

 Alpha  occ. eigenvalues --  -24.69731 -19.12596 -14.33480 -14.30294 -10.26116
 Alpha  occ. eigenvalues --  -10.24558 -10.22553 -10.21320 -10.20799 -10.20663
 Alpha  occ. eigenvalues --  -10.20354 -10.20090 -10.19742 -10.19358 -10.19086
 Alpha  occ. eigenvalues --  -10.18869 -10.18406 -10.18101 -10.17709 -10.17595
 Alpha  occ. eigenvalues --  -10.17587 -10.17533 -10.17523 -10.17501 -10.17460
 Alpha  occ. eigenvalues --  -10.16896  -6.83647  -4.86074  -4.84949  -4.84901
 Alpha  occ. eigenvalues --   -1.90901  -1.90521  -1.90495  -1.89523  -1.89522
 Alpha  occ. eigenvalues --   -1.23667  -1.04295  -0.97800  -0.92260  -0.87582
 Alpha  occ. eigenvalues --   -0.85243  -0.82575  -0.79443  -0.77885  -0.77219
 Alpha  occ. eigenvalues --   -0.74720  -0.74390  -0.72687  -0.72045  -0.70201
 Alpha  occ. eigenvalues --   -0.67312  -0.65799  -0.64187  -0.63081  -0.61364
 Alpha  occ. eigenvalues --   -0.60494  -0.59578  -0.58321  -0.56337  -0.54364
 Alpha  occ. eigenvalues --   -0.52405  -0.51807  -0.50844  -0.49881  -0.49203
 Alpha  occ. eigenvalues --   -0.47929  -0.47547  -0.47506  -0.46339  -0.45716
 Alpha  occ. eigenvalues --   -0.45196  -0.44735  -0.44491  -0.44009  -0.43285
 Alpha  occ. eigenvalues --   -0.42535  -0.41916  -0.41548  -0.41033  -0.39648
 Alpha  occ. eigenvalues --   -0.39235  -0.38918  -0.38444  -0.37855  -0.37360
 Alpha  occ. eigenvalues --   -0.36998  -0.36164  -0.36040  -0.35046  -0.35005
 Alpha  occ. eigenvalues --   -0.34402  -0.33711  -0.32884  -0.30478  -0.28525
 Alpha  occ. eigenvalues --   -0.28241  -0.27399  -0.27128  -0.25915  -0.25785
 Alpha  occ. eigenvalues --   -0.24963  -0.24346  -0.23504  -0.19871
 Alpha virt. eigenvalues --   -0.04489  -0.03249  -0.02077  -0.01543  -0.01074
 Alpha virt. eigenvalues --   -0.00172   0.00955   0.03877   0.05475   0.05669
 Alpha virt. eigenvalues --    0.06310   0.06512   0.07396   0.08011   0.08570
 Alpha virt. eigenvalues --    0.08932   0.09214   0.09773   0.10258   0.10440
 Alpha virt. eigenvalues --    0.10798   0.11254   0.11488   0.11724   0.12024
 Alpha virt. eigenvalues --    0.12358   0.12479   0.13110   0.13316   0.13696
 Alpha virt. eigenvalues --    0.13998   0.14492   0.14698   0.14978   0.15066
 Alpha virt. eigenvalues --    0.15159   0.16247   0.17444   0.17984   0.18416
 Alpha virt. eigenvalues --    0.18998   0.19214   0.19520   0.19708   0.20321
 Alpha virt. eigenvalues --    0.20493   0.20790   0.21014   0.21397   0.21663
 Alpha virt. eigenvalues --    0.22134   0.22322   0.22889   0.23332   0.23616
 Alpha virt. eigenvalues --    0.23874   0.23914   0.24357   0.24425   0.25384
 Alpha virt. eigenvalues --    0.25625   0.26177   0.26746   0.26945   0.27169
 Alpha virt. eigenvalues --    0.28254   0.28610   0.28966   0.29285   0.29694
 Alpha virt. eigenvalues --    0.29808   0.30274   0.30401   0.30715   0.30935
 Alpha virt. eigenvalues --    0.31742   0.32456   0.32823   0.33121   0.33516
 Alpha virt. eigenvalues --    0.34125   0.34459   0.34694   0.35070   0.35468
 Alpha virt. eigenvalues --    0.36157   0.36391   0.36732   0.36925   0.37077
 Alpha virt. eigenvalues --    0.37252   0.37536   0.38150   0.38197   0.38770
 Alpha virt. eigenvalues --    0.38924   0.39277   0.39770   0.39816   0.40171
 Alpha virt. eigenvalues --    0.40815   0.41219   0.41694   0.41938   0.42218
 Alpha virt. eigenvalues --    0.42647   0.42719   0.43113   0.43435   0.43864
 Alpha virt. eigenvalues --    0.44126   0.44324   0.44880   0.45267   0.45483
 Alpha virt. eigenvalues --    0.45674   0.46092   0.46325   0.46514   0.46896
 Alpha virt. eigenvalues --    0.47355   0.47551   0.47751   0.48629   0.48855
 Alpha virt. eigenvalues --    0.49043   0.49476   0.50348   0.50573   0.50896
 Alpha virt. eigenvalues --    0.51313   0.51835   0.52152   0.52439   0.52864
 Alpha virt. eigenvalues --    0.53205   0.53463   0.54164   0.54892   0.55020
 Alpha virt. eigenvalues --    0.55368   0.56249   0.56531   0.57039   0.57360
 Alpha virt. eigenvalues --    0.57537   0.58571   0.59337   0.59674   0.60542
 Alpha virt. eigenvalues --    0.61168   0.61525   0.62472   0.62673   0.62850
 Alpha virt. eigenvalues --    0.63165   0.64273   0.64632   0.65131   0.65488
 Alpha virt. eigenvalues --    0.65985   0.66498   0.66832   0.66974   0.67432
 Alpha virt. eigenvalues --    0.67512   0.68066   0.68193   0.68984   0.69084
 Alpha virt. eigenvalues --    0.69487   0.70544   0.70783   0.70980   0.71366
 Alpha virt. eigenvalues --    0.71635   0.72618   0.73062   0.73586   0.73883
 Alpha virt. eigenvalues --    0.74399   0.75260   0.75391   0.75754   0.76232
 Alpha virt. eigenvalues --    0.76493   0.76600   0.77309   0.77471   0.78742
 Alpha virt. eigenvalues --    0.79160   0.79712   0.80103   0.80507   0.81230
 Alpha virt. eigenvalues --    0.81462   0.82101   0.82266   0.82592   0.83096
 Alpha virt. eigenvalues --    0.83594   0.84940   0.85417   0.85830   0.86152
 Alpha virt. eigenvalues --    0.86686   0.87261   0.87659   0.87729   0.87908
 Alpha virt. eigenvalues --    0.88647   0.89537   0.89939   0.90181   0.90447
 Alpha virt. eigenvalues --    0.91330   0.91647   0.92498   0.92706   0.93469
 Alpha virt. eigenvalues --    0.93626   0.94202   0.94682   0.95041   0.95687
 Alpha virt. eigenvalues --    0.96091   0.96503   0.96822   0.97710   0.98001
 Alpha virt. eigenvalues --    0.98317   0.99006   0.99462   0.99837   1.00021
 Alpha virt. eigenvalues --    1.00397   1.00733   1.01243   1.01373   1.02065
 Alpha virt. eigenvalues --    1.03343   1.03346   1.03564   1.03959   1.04308
 Alpha virt. eigenvalues --    1.05031   1.05265   1.05940   1.06361   1.07148
 Alpha virt. eigenvalues --    1.07550   1.08095   1.08612   1.08805   1.09803
 Alpha virt. eigenvalues --    1.10460   1.10731   1.11628   1.12068   1.12164
 Alpha virt. eigenvalues --    1.12683   1.13390   1.13518   1.14326   1.14498
 Alpha virt. eigenvalues --    1.15750   1.16236   1.16396   1.16704   1.17521
 Alpha virt. eigenvalues --    1.17764   1.18524   1.18867   1.19232   1.20023
 Alpha virt. eigenvalues --    1.20300   1.20647   1.20891   1.21891   1.22418
 Alpha virt. eigenvalues --    1.22898   1.23389   1.23543   1.24175   1.24345
 Alpha virt. eigenvalues --    1.24652   1.25245   1.25613   1.26149   1.26858
 Alpha virt. eigenvalues --    1.27202   1.27584   1.28234   1.28848   1.29297
 Alpha virt. eigenvalues --    1.29532   1.30338   1.30516   1.30739   1.31158
 Alpha virt. eigenvalues --    1.31985   1.32360   1.33327   1.33750   1.34254
 Alpha virt. eigenvalues --    1.34375   1.34965   1.35404   1.36156   1.36449
 Alpha virt. eigenvalues --    1.36734   1.37255   1.37971   1.38598   1.38770
 Alpha virt. eigenvalues --    1.39431   1.39799   1.40200   1.40725   1.41459
 Alpha virt. eigenvalues --    1.41695   1.42296   1.42456   1.42900   1.43399
 Alpha virt. eigenvalues --    1.43660   1.43710   1.44620   1.45173   1.45600
 Alpha virt. eigenvalues --    1.46309   1.46389   1.47480   1.47960   1.48164
 Alpha virt. eigenvalues --    1.48829   1.49650   1.49735   1.49994   1.50691
 Alpha virt. eigenvalues --    1.51012   1.51962   1.52109   1.52431   1.53434
 Alpha virt. eigenvalues --    1.53781   1.54397   1.54776   1.55361   1.56031
 Alpha virt. eigenvalues --    1.56484   1.57521   1.57925   1.58144   1.58938
 Alpha virt. eigenvalues --    1.59486   1.59951   1.60977   1.61144   1.61419
 Alpha virt. eigenvalues --    1.62230   1.62677   1.63225   1.63411   1.64653
 Alpha virt. eigenvalues --    1.64870   1.65427   1.66325   1.66627   1.67265
 Alpha virt. eigenvalues --    1.68176   1.68995   1.69528   1.69978   1.70308
 Alpha virt. eigenvalues --    1.70796   1.71225   1.71738   1.71961   1.72412
 Alpha virt. eigenvalues --    1.72972   1.74227   1.75157   1.76255   1.77225
 Alpha virt. eigenvalues --    1.77395   1.77945   1.78861   1.80208   1.80387
 Alpha virt. eigenvalues --    1.81035   1.82456   1.82930   1.83258   1.84762
 Alpha virt. eigenvalues --    1.86217   1.86661   1.87092   1.87341   1.88701
 Alpha virt. eigenvalues --    1.89787   1.90837   1.91382   1.92561   1.93435
 Alpha virt. eigenvalues --    1.94011   1.95395   1.95921   1.96748   1.96983
 Alpha virt. eigenvalues --    1.97337   1.98239   1.99754   2.00041   2.00426
 Alpha virt. eigenvalues --    2.01317   2.02015   2.03089   2.04112   2.04539
 Alpha virt. eigenvalues --    2.04897   2.05475   2.06206   2.07471   2.08090
 Alpha virt. eigenvalues --    2.08291   2.09002   2.09561   2.09928   2.11568
 Alpha virt. eigenvalues --    2.11969   2.13044   2.13930   2.14263   2.14471
 Alpha virt. eigenvalues --    2.16413   2.17144   2.17888   2.18350   2.21147
 Alpha virt. eigenvalues --    2.22210   2.23454   2.23885   2.24518   2.25326
 Alpha virt. eigenvalues --    2.26142   2.27051   2.27912   2.29404   2.30062
 Alpha virt. eigenvalues --    2.30477   2.31247   2.32170   2.32998   2.33566
 Alpha virt. eigenvalues --    2.34875   2.34987   2.35835   2.37087   2.37320
 Alpha virt. eigenvalues --    2.37616   2.39304   2.39725   2.40218   2.41238
 Alpha virt. eigenvalues --    2.41664   2.42263   2.43439   2.43698   2.45289
 Alpha virt. eigenvalues --    2.45594   2.47543   2.48236   2.49555   2.51144
 Alpha virt. eigenvalues --    2.52148   2.53511   2.55412   2.56018   2.56460
 Alpha virt. eigenvalues --    2.57613   2.58769   2.59738   2.60567   2.61089
 Alpha virt. eigenvalues --    2.61334   2.61829   2.62569   2.63889   2.64377
 Alpha virt. eigenvalues --    2.65280   2.66219   2.66522   2.67818   2.68800
 Alpha virt. eigenvalues --    2.69776   2.70149   2.71476   2.71786   2.72230
 Alpha virt. eigenvalues --    2.72611   2.73187   2.73298   2.74061   2.74952
 Alpha virt. eigenvalues --    2.75933   2.76381   2.77114   2.77394   2.77823
 Alpha virt. eigenvalues --    2.78603   2.79039   2.79601   2.80145   2.80585
 Alpha virt. eigenvalues --    2.81221   2.81681   2.82135   2.82206   2.83134
 Alpha virt. eigenvalues --    2.83535   2.84109   2.84584   2.85631   2.86168
 Alpha virt. eigenvalues --    2.86493   2.87281   2.87783   2.89016   2.89574
 Alpha virt. eigenvalues --    2.90951   2.91275   2.91379   2.91612   2.92505
 Alpha virt. eigenvalues --    2.92903   2.93321   2.94420   2.95078   2.95574
 Alpha virt. eigenvalues --    2.96100   2.96718   2.97000   2.97364   2.98022
 Alpha virt. eigenvalues --    2.98350   2.99140   2.99479   3.00052   3.00677
 Alpha virt. eigenvalues --    3.00762   3.01050   3.01963   3.02274   3.02977
 Alpha virt. eigenvalues --    3.03243   3.03651   3.03966   3.04198   3.04443
 Alpha virt. eigenvalues --    3.04852   3.05497   3.05670   3.06010   3.06246
 Alpha virt. eigenvalues --    3.06604   3.06709   3.07117   3.07921   3.08069
 Alpha virt. eigenvalues --    3.08708   3.08837   3.09907   3.10280   3.10813
 Alpha virt. eigenvalues --    3.11169   3.11451   3.11816   3.12213   3.12777
 Alpha virt. eigenvalues --    3.12890   3.13404   3.13964   3.14255   3.14317
 Alpha virt. eigenvalues --    3.14723   3.15430   3.15642   3.15999   3.16432
 Alpha virt. eigenvalues --    3.16665   3.17157   3.18042   3.18434   3.18918
 Alpha virt. eigenvalues --    3.19544   3.19675   3.20156   3.20686   3.21024
 Alpha virt. eigenvalues --    3.21502   3.21681   3.22163   3.22701   3.23130
 Alpha virt. eigenvalues --    3.23687   3.23847   3.24892   3.25469   3.25733
 Alpha virt. eigenvalues --    3.26588   3.26964   3.27488   3.28086   3.28969
 Alpha virt. eigenvalues --    3.29321   3.29842   3.30818   3.30976   3.31537
 Alpha virt. eigenvalues --    3.31842   3.32244   3.33009   3.33126   3.33772
 Alpha virt. eigenvalues --    3.34017   3.34245   3.35163   3.35479   3.35767
 Alpha virt. eigenvalues --    3.36176   3.36565   3.37316   3.37810   3.38563
 Alpha virt. eigenvalues --    3.38990   3.39496   3.39815   3.40101   3.40690
 Alpha virt. eigenvalues --    3.41044   3.42054   3.42649   3.43369   3.43472
 Alpha virt. eigenvalues --    3.44080   3.44469   3.44847   3.45358   3.45711
 Alpha virt. eigenvalues --    3.46385   3.46791   3.47508   3.47837   3.49089
 Alpha virt. eigenvalues --    3.49233   3.49728   3.50226   3.50371   3.50550
 Alpha virt. eigenvalues --    3.51073   3.51809   3.52019   3.52996   3.53454
 Alpha virt. eigenvalues --    3.53590   3.54451   3.54606   3.55030   3.55303
 Alpha virt. eigenvalues --    3.55613   3.56665   3.56823   3.57572   3.58563
 Alpha virt. eigenvalues --    3.58993   3.60146   3.60315   3.60499   3.61273
 Alpha virt. eigenvalues --    3.62239   3.62829   3.63337   3.63752   3.64136
 Alpha virt. eigenvalues --    3.64532   3.65656   3.66348   3.66695   3.66949
 Alpha virt. eigenvalues --    3.67406   3.67947   3.69084   3.69756   3.70148
 Alpha virt. eigenvalues --    3.70218   3.70953   3.71140   3.71917   3.72221
 Alpha virt. eigenvalues --    3.72631   3.73676   3.74417   3.75034   3.75510
 Alpha virt. eigenvalues --    3.75900   3.76448   3.76929   3.77483   3.77875
 Alpha virt. eigenvalues --    3.78582   3.78724   3.79324   3.80355   3.81096
 Alpha virt. eigenvalues --    3.81751   3.82081   3.82709   3.82985   3.83623
 Alpha virt. eigenvalues --    3.84336   3.84926   3.85180   3.85493   3.85671
 Alpha virt. eigenvalues --    3.87393   3.87520   3.88513   3.89349   3.89973
 Alpha virt. eigenvalues --    3.90074   3.90894   3.91921   3.92699   3.93504
 Alpha virt. eigenvalues --    3.94066   3.94956   3.95536   3.95820   3.96028
 Alpha virt. eigenvalues --    3.96686   3.97219   3.97708   3.98533   3.99094
 Alpha virt. eigenvalues --    4.00243   4.00512   4.00943   4.01438   4.02168
 Alpha virt. eigenvalues --    4.02952   4.03706   4.04439   4.05407   4.05425
 Alpha virt. eigenvalues --    4.05715   4.06497   4.07828   4.08138   4.09098
 Alpha virt. eigenvalues --    4.09498   4.10075   4.10420   4.10609   4.10988
 Alpha virt. eigenvalues --    4.11569   4.11899   4.12406   4.13374   4.13742
 Alpha virt. eigenvalues --    4.13802   4.14478   4.15224   4.15840   4.16124
 Alpha virt. eigenvalues --    4.16745   4.17046   4.17452   4.17844   4.18570
 Alpha virt. eigenvalues --    4.19421   4.19926   4.20521   4.20867   4.21140
 Alpha virt. eigenvalues --    4.22548   4.23125   4.23704   4.23963   4.24517
 Alpha virt. eigenvalues --    4.24769   4.25664   4.26632   4.26900   4.27177
 Alpha virt. eigenvalues --    4.27449   4.28204   4.28787   4.29600   4.29970
 Alpha virt. eigenvalues --    4.30569   4.31062   4.31266   4.32237   4.32328
 Alpha virt. eigenvalues --    4.33652   4.33920   4.34278   4.35513   4.36952
 Alpha virt. eigenvalues --    4.37681   4.37930   4.38126   4.39097   4.40146
 Alpha virt. eigenvalues --    4.41250   4.41480   4.42117   4.42776   4.43132
 Alpha virt. eigenvalues --    4.43658   4.45034   4.45553   4.46708   4.48040
 Alpha virt. eigenvalues --    4.49687   4.50198   4.51951   4.52213   4.52725
 Alpha virt. eigenvalues --    4.54068   4.54640   4.54888   4.56333   4.57091
 Alpha virt. eigenvalues --    4.58795   4.60129   4.60592   4.62316   4.63236
 Alpha virt. eigenvalues --    4.64323   4.64946   4.65710   4.66038   4.66593
 Alpha virt. eigenvalues --    4.67425   4.67800   4.68292   4.69038   4.69821
 Alpha virt. eigenvalues --    4.70226   4.71212   4.72054   4.72512   4.73448
 Alpha virt. eigenvalues --    4.74354   4.74726   4.75379   4.76003   4.77639
 Alpha virt. eigenvalues --    4.78079   4.78645   4.79147   4.80662   4.81025
 Alpha virt. eigenvalues --    4.82854   4.82913   4.83958   4.84059   4.84878
 Alpha virt. eigenvalues --    4.86961   4.87686   4.88272   4.88750   4.89453
 Alpha virt. eigenvalues --    4.90520   4.90900   4.93210   4.93438   4.95328
 Alpha virt. eigenvalues --    4.96801   4.97419   4.98138   4.99731   4.99952
 Alpha virt. eigenvalues --    5.00902   5.02677   5.03690   5.05354   5.05963
 Alpha virt. eigenvalues --    5.06753   5.08228   5.08314   5.09560   5.10338
 Alpha virt. eigenvalues --    5.11645   5.12619   5.15152   5.16026   5.17164
 Alpha virt. eigenvalues --    5.18049   5.18441   5.19390   5.19731   5.20193
 Alpha virt. eigenvalues --    5.21003   5.22202   5.23236   5.23800   5.24380
 Alpha virt. eigenvalues --    5.25461   5.26659   5.27088   5.27805   5.28664
 Alpha virt. eigenvalues --    5.29908   5.31964   5.32719   5.34013   5.34243
 Alpha virt. eigenvalues --    5.34866   5.34971   5.36469   5.37609   5.38759
 Alpha virt. eigenvalues --    5.39995   5.41429   5.41724   5.42514   5.43188
 Alpha virt. eigenvalues --    5.43601   5.44630   5.45226   5.46331   5.47601
 Alpha virt. eigenvalues --    5.49173   5.49853   5.50360   5.50664   5.51979
 Alpha virt. eigenvalues --    5.53420   5.54602   5.55382   5.56483   5.56834
 Alpha virt. eigenvalues --    5.58693   5.60508   5.62049   5.62326   5.62444
 Alpha virt. eigenvalues --    5.63550   5.65591   5.67186   5.68770   5.69512
 Alpha virt. eigenvalues --    5.70572   5.71624   5.72103   5.75241   5.76997
 Alpha virt. eigenvalues --    5.79188   5.81363   5.82864   5.86112   5.87907
 Alpha virt. eigenvalues --    5.88280   5.91542   5.95140   5.96514   5.98309
 Alpha virt. eigenvalues --    6.03359   6.04521   6.05314   6.08037   6.09091
 Alpha virt. eigenvalues --    6.11150   6.17452   6.19438   6.23620   6.35416
 Alpha virt. eigenvalues --    6.42096   6.47361   6.59694   6.67675   6.78327
 Alpha virt. eigenvalues --    6.86209   6.87878   6.93991   6.98416   7.03464
 Alpha virt. eigenvalues --    7.10390   7.25058   7.35119   7.43003   7.45950
 Alpha virt. eigenvalues --    7.64674   8.38030   8.56669   8.76668   9.02162
 Alpha virt. eigenvalues --    9.03186  22.51815  22.68042  22.83785  22.98269
 Alpha virt. eigenvalues --   23.03894  23.07387  23.11032  23.15929  23.16070
 Alpha virt. eigenvalues --   23.17894  23.21057  23.26781  23.28120  23.30247
 Alpha virt. eigenvalues --   23.35311  23.42095  23.44570  23.50399  23.52276
 Alpha virt. eigenvalues --   23.64267  23.89254  24.11862  32.76403  33.14593
 Alpha virt. eigenvalues --   34.54946  34.69384  34.95330  42.95018  44.34502
 Alpha virt. eigenvalues --   57.43817 117.86511
          Condensed to atoms (all electrons):
               1          2          3          4          5          6
     1  C    5.698661   0.349128  -0.113183  -0.051293  -0.085872   0.421208
     2  C    0.349128   5.378648   0.370629  -0.093510  -0.005362  -0.092484
     3  C   -0.113183   0.370629   5.333458   0.433406  -0.071980  -0.024898
     4  C   -0.051293  -0.093510   0.433406   5.180122   0.457080  -0.056657
     5  C   -0.085872  -0.005362  -0.071980   0.457080   4.826233   0.470561
     6  N    0.421208  -0.092484  -0.024898  -0.056657   0.470561   6.710538
     7  H   -0.001556   0.011131  -0.038538   0.416390  -0.028341   0.005416
     8  C    0.135999  -0.111623   0.024328   0.008560  -0.023680  -0.024930
     9  C   -0.199618   0.009415   0.000252   0.001990  -0.002408   0.019144
    10  C    0.040300  -0.005400  -0.000313   0.000052   0.000081  -0.001909
    11  C    0.020076  -0.005754  -0.000300  -0.000017   0.000220  -0.000561
    12  C   -0.015810   0.001719   0.000082  -0.000002  -0.000063   0.000500
    13  H   -0.000206  -0.000004   0.000002  -0.000000   0.000002  -0.000005
    14  H    0.000170   0.000024   0.000000  -0.000000  -0.000000  -0.000004
    15  H    0.000196  -0.000288  -0.000006   0.000000   0.000000   0.000045
    16  C   -0.186685   0.031355   0.003600  -0.001254   0.003177  -0.005165
    17  C   -0.060807   0.004020   0.000748  -0.000742  -0.003265  -0.001139
    18  C   -0.006652   0.000813   0.000104   0.000109  -0.001399   0.007942
    19  C   -0.005122  -0.008182   0.000279   0.003365  -0.002036   0.005344
    20  C    0.000401   0.000082  -0.000035  -0.000131   0.000251  -0.002190
    21  H   -0.000017   0.000008   0.000001  -0.000003  -0.000023   0.000080
    22  C    0.002744   0.001817   0.000412   0.000332  -0.000352  -0.003438
    23  H    0.000395  -0.007616  -0.001089  -0.000120  -0.000186  -0.001026
    24  C   -0.001030  -0.000417   0.000011   0.000273   0.000301   0.001683
    25  H    0.000006  -0.000001  -0.000000  -0.000000   0.000003  -0.000017
    26  H    0.000118   0.000165   0.000076  -0.000032   0.000021  -0.000077
    27  H   -0.000003   0.000000  -0.000000  -0.000001  -0.000001   0.000008
    28  F    0.007528   0.019157  -0.000185  -0.000367  -0.000090  -0.005210
    29  C    0.011278  -0.089972   0.316718  -0.055637   0.008624  -0.000346
    30  H   -0.001158  -0.011060  -0.034301   0.002028  -0.000055   0.000184
    31  H   -0.000531  -0.016834  -0.033384   0.005497  -0.000547   0.000043
    32  H    0.000148   0.015601  -0.045536  -0.018087   0.000343   0.000046
    33  C   -0.002358   0.000460  -0.001987   0.008805  -0.042277  -0.035214
    34  C   -0.000400  -0.000090   0.000027  -0.019679  -0.035303   0.003629
    35  C   -0.000347  -0.000679  -0.000033  -0.003300   0.020946   0.000820
    36  H    0.000393   0.000242   0.000253   0.001762  -0.027140   0.030208
    37  H   -0.000049   0.000031   0.000093   0.000168  -0.004135   0.000107
    38  C    0.000490  -0.000346  -0.000782  -0.004884   0.023786   0.002934
    39  H   -0.000353   0.000417   0.002245   0.001172  -0.028608  -0.000330
    40  H   -0.000116   0.000076   0.000099   0.003258  -0.008469  -0.000450
    41  H    0.000649   0.000520   0.000255  -0.001581  -0.010216   0.001531
    42  H   -0.000011   0.000013  -0.000004   0.000182  -0.000416  -0.000671
    43  H   -0.000516   0.000387  -0.000584   0.002132  -0.004732  -0.000813
    44  H   -0.000010   0.000019   0.000152  -0.000119  -0.001959  -0.000080
    45  N   -0.002129   0.005220   0.005682  -0.070571   0.407303  -0.119894
    46  O    0.000070  -0.000024   0.000111   0.001277  -0.003919  -0.000157
    47  I   -0.122157   0.337850  -0.082778   0.013367   0.001185   0.008724
               7          8          9         10         11         12
     1  C   -0.001556   0.135999  -0.199618   0.040300   0.020076  -0.015810
     2  C    0.011131  -0.111623   0.009415  -0.005400  -0.005754   0.001719
     3  C   -0.038538   0.024328   0.000252  -0.000313  -0.000300   0.000082
     4  C    0.416390   0.008560   0.001990   0.000052  -0.000017  -0.000002
     5  C   -0.028341  -0.023680  -0.002408   0.000081   0.000220  -0.000063
     6  N    0.005416  -0.024930   0.019144  -0.001909  -0.000561   0.000500
     7  H    0.516582   0.000068  -0.000002   0.000001   0.000001  -0.000000
     8  C    0.000068   6.135414   0.160166   0.110281   0.113432  -0.154462
     9  C   -0.000002   0.160166   5.542563   0.307166  -0.139751   0.055784
    10  C    0.000001   0.110281   0.307166   5.187891   0.022596   0.404884
    11  C    0.000001   0.113432  -0.139751   0.022596   5.106903   0.379174
    12  C   -0.000000  -0.154462   0.055784   0.404884   0.379174   5.034409
    13  H   -0.000000   0.008119  -0.030826   0.418069   0.005051  -0.028414
    14  H   -0.000000  -0.000472   0.004298  -0.028149  -0.025365   0.411778
    15  H    0.000000   0.025770  -0.005610   0.011958   0.430977  -0.039645
    16  C   -0.000020  -0.048163   0.139252  -0.159783   0.371605   0.052565
    17  C   -0.000040  -0.097395   0.235562  -0.107224  -0.001632   0.008295
    18  C   -0.000003   0.002711  -0.122870  -0.013789  -0.000180   0.000390
    19  C    0.000065  -0.011303  -0.119571   0.007078   0.000226  -0.001119
    20  C    0.000000  -0.000167   0.007536  -0.000555  -0.000010  -0.000028
    21  H   -0.000000  -0.000301  -0.001973   0.001143  -0.000186   0.000453
    22  C    0.000018   0.000899   0.007594  -0.001365  -0.000022   0.000069
    23  H    0.000027   0.001346  -0.009543   0.001301   0.000125  -0.000263
    24  C    0.000003   0.000069  -0.008461   0.000501   0.000007  -0.000004
    25  H    0.000000   0.000044  -0.000372  -0.000051  -0.000000  -0.000003
    26  H   -0.000001   0.000001  -0.000276   0.000003  -0.000000  -0.000000
    27  H   -0.000000  -0.000007   0.000036  -0.000001  -0.000000   0.000000
    28  F   -0.000002  -0.144457   0.014068  -0.004758  -0.064467   0.011343
    29  C   -0.009593  -0.001608   0.000127   0.000004  -0.000003  -0.000001
    30  H    0.000381  -0.000044   0.000001   0.000002   0.000001  -0.000000
    31  H    0.000271  -0.000026  -0.000005  -0.000000   0.000002   0.000000
    32  H    0.003525  -0.000009  -0.000002  -0.000000  -0.000000   0.000000
    33  C   -0.000335   0.000269  -0.001167   0.000143   0.000031  -0.000025
    34  C   -0.003672   0.000091  -0.000076   0.000001   0.000000   0.000000
    35  C    0.000045   0.000386  -0.000330   0.000050  -0.000001   0.000004
    36  H   -0.000202  -0.000325   0.000423  -0.000152  -0.000035   0.000021
    37  H   -0.000135  -0.000052  -0.000028  -0.000002  -0.000000   0.000000
    38  C   -0.000137   0.000023  -0.000032  -0.000000   0.000000  -0.000000
    39  H   -0.002318  -0.000026   0.000000  -0.000000  -0.000000   0.000000
    40  H   -0.000589  -0.000010  -0.000003  -0.000000  -0.000000   0.000000
    41  H   -0.000219  -0.000436   0.000628  -0.000004  -0.000001  -0.000000
    42  H    0.000002  -0.000005   0.000099  -0.000009  -0.000000  -0.000001
    43  H   -0.001108  -0.000023  -0.000033  -0.000000  -0.000000   0.000000
    44  H    0.000057  -0.000001   0.000001  -0.000000   0.000000  -0.000000
    45  N   -0.000245  -0.002502  -0.000586  -0.000011   0.000003  -0.000000
    46  O    0.000069  -0.000016   0.000048   0.000000   0.000000  -0.000000
    47  I   -0.000410   0.032876  -0.002310   0.001588   0.007594   0.000467
              13         14         15         16         17         18
     1  C   -0.000206   0.000170   0.000196  -0.186685  -0.060807  -0.006652
     2  C   -0.000004   0.000024  -0.000288   0.031355   0.004020   0.000813
     3  C    0.000002   0.000000  -0.000006   0.003600   0.000748   0.000104
     4  C   -0.000000  -0.000000   0.000000  -0.001254  -0.000742   0.000109
     5  C    0.000002  -0.000000   0.000000   0.003177  -0.003265  -0.001399
     6  N   -0.000005  -0.000004   0.000045  -0.005165  -0.001139   0.007942
     7  H   -0.000000  -0.000000   0.000000  -0.000020  -0.000040  -0.000003
     8  C    0.008119  -0.000472   0.025770  -0.048163  -0.097395   0.002711
     9  C   -0.030826   0.004298  -0.005610   0.139252   0.235562  -0.122870
    10  C    0.418069  -0.028149   0.011958  -0.159783  -0.107224  -0.013789
    11  C    0.005051  -0.025365   0.430977   0.371605  -0.001632  -0.000180
    12  C   -0.028414   0.411778  -0.039645   0.052565   0.008295   0.000390
    13  H    0.481708  -0.002285  -0.000227  -0.000411  -0.001768   0.001091
    14  H   -0.002285   0.485435  -0.005113   0.005510  -0.001056  -0.000006
    15  H   -0.000227  -0.005113   0.499069  -0.068627   0.000157   0.000002
    16  C   -0.000411   0.005510  -0.068627   5.223562   0.005268   0.000997
    17  C   -0.001768  -0.001056   0.000157   0.005268   5.342040   0.438748
    18  C    0.001091  -0.000006   0.000002   0.000997   0.438748   5.131011
    19  C    0.000244   0.000025  -0.000009  -0.004224   0.374916   0.007319
    20  C    0.000363  -0.000004  -0.000000   0.000213  -0.029852   0.440740
    21  H   -0.001942   0.000058  -0.000001   0.000031  -0.033284   0.422415
    22  C   -0.000144  -0.000001  -0.000000   0.000390  -0.026396  -0.050893
    23  H    0.000023  -0.000000   0.000002  -0.001088  -0.038743   0.006588
    24  C   -0.000046   0.000000   0.000000  -0.000111  -0.060571  -0.023612
    25  H    0.000051   0.000000  -0.000000   0.000001   0.006576  -0.034791
    26  H    0.000003   0.000000  -0.000000   0.000009   0.006393  -0.000913
    27  H   -0.000001  -0.000000   0.000000  -0.000000  -0.000310   0.005508
    28  F   -0.000001  -0.000127   0.005589   0.326333  -0.000332   0.000002
    29  C    0.000000  -0.000000   0.000000  -0.000256  -0.000045   0.000000
    30  H    0.000000  -0.000000   0.000000  -0.000042  -0.000000  -0.000000
    31  H    0.000000   0.000000  -0.000000   0.000075  -0.000003   0.000000
    32  H   -0.000000   0.000000  -0.000000   0.000002  -0.000000  -0.000000
    33  C   -0.000004  -0.000000   0.000000  -0.000309  -0.003291   0.003893
    34  C   -0.000000  -0.000000  -0.000000  -0.000011  -0.000296   0.000251
    35  C    0.000004   0.000000  -0.000000  -0.000133  -0.001933  -0.001745
    36  H    0.000003   0.000000  -0.000000   0.000644   0.000595  -0.000637
    37  H    0.000000   0.000000  -0.000000   0.000016   0.000006  -0.000025
    38  C   -0.000000  -0.000000   0.000000  -0.000003   0.000209   0.000158
[...]
     5  C    0.000003   0.000021  -0.000001  -0.000090   0.008624  -0.000055
     6  N   -0.000017  -0.000077   0.000008  -0.005210  -0.000346   0.000184
     7  H    0.000000  -0.000001  -0.000000  -0.000002  -0.009593   0.000381
     8  C    0.000044   0.000001  -0.000007  -0.144457  -0.001608  -0.000044
     9  C   -0.000372  -0.000276   0.000036   0.014068   0.000127   0.000001
    10  C   -0.000051   0.000003  -0.000001  -0.004758   0.000004   0.000002
    11  C   -0.000000  -0.000000  -0.000000  -0.064467  -0.000003   0.000001
    12  C   -0.000003  -0.000000   0.000000   0.011343  -0.000001  -0.000000
    13  H    0.000051   0.000003  -0.000001  -0.000001   0.000000   0.000000
    14  H    0.000000   0.000000  -0.000000  -0.000127  -0.000000  -0.000000
    15  H   -0.000000  -0.000000   0.000000   0.005589   0.000000   0.000000
    16  C    0.000001   0.000009  -0.000000   0.326333  -0.000256  -0.000042
    17  C    0.006576   0.006393  -0.000310  -0.000332  -0.000045  -0.000000
    18  C   -0.034791  -0.000913   0.005508   0.000002   0.000000  -0.000000
    19  C   -0.000922  -0.033942   0.005062   0.000062   0.000048   0.000053
    20  C    0.423500   0.006266  -0.028326   0.000000  -0.000001   0.000000
    21  H   -0.003715   0.000065  -0.000287   0.000001  -0.000000  -0.000000
    22  C    0.006235   0.421944  -0.028567   0.000002  -0.000026  -0.000012
    23  H    0.000066  -0.003772  -0.000304   0.000001   0.000091  -0.000017
    24  C   -0.031927  -0.031624   0.414350  -0.000000   0.000002  -0.000001
    25  H    0.492128  -0.000307  -0.003582   0.000000  -0.000000   0.000000
    26  H   -0.000307   0.489640  -0.003291   0.000000  -0.000003   0.000001
    27  H   -0.003582  -0.003291   0.491081  -0.000000  -0.000000  -0.000000
    28  F    0.000000   0.000000  -0.000000   9.065089   0.000025   0.000003
    29  C   -0.000000  -0.000003  -0.000000   0.000025   4.854502   0.409089
    30  H    0.000000   0.000001  -0.000000   0.000003   0.409089   0.570955
    31  H   -0.000000  -0.000000  -0.000000  -0.000014   0.414933  -0.027789
    32  H    0.000000   0.000000  -0.000000   0.000001   0.414883  -0.022223
    33  C   -0.000083  -0.000055   0.000017   0.000001   0.000054   0.000001
    34  C   -0.000002  -0.000026   0.000007   0.000000   0.000031  -0.000008
    35  C    0.000113   0.000117   0.000056   0.000000   0.000011  -0.000002
    36  H    0.000008   0.000004  -0.000002  -0.000006   0.000005  -0.000000
    37  H    0.000003   0.000000   0.000000  -0.000000  -0.000002   0.000000
    38  C    0.000001   0.000046  -0.000028  -0.000000   0.000061   0.000007
    39  H    0.000000   0.000004  -0.000000   0.000000  -0.000158   0.000005
    40  H    0.000000   0.000001  -0.000000  -0.000000  -0.000014   0.000000
    41  H    0.000256   0.000039  -0.000089  -0.000000  -0.000002   0.000002
    42  H    0.000351   0.000006  -0.000069  -0.000000  -0.000000   0.000000
    43  H    0.000008   0.000313   0.000014  -0.000000  -0.000026   0.000001
    44  H    0.000001   0.000002  -0.000005  -0.000000  -0.000006   0.000000
    45  N    0.000008   0.000029  -0.000005   0.000002  -0.000625   0.000022
    46  O   -0.000054  -0.000037  -0.000006  -0.000000  -0.000000  -0.000000
    47  I   -0.000000   0.000052   0.000000  -0.004516  -0.006725  -0.000201
              31         32         33         34         35         36
     1  C   -0.000531   0.000148  -0.002358  -0.000400  -0.000347   0.000393
     2  C   -0.016834   0.015601   0.000460  -0.000090  -0.000679   0.000242
     3  C   -0.033384  -0.045536  -0.001987   0.000027  -0.000033   0.000253
     4  C    0.005497  -0.018087   0.008805  -0.019679  -0.003300   0.001762
     5  C   -0.000547   0.000343  -0.042277  -0.035303   0.020946  -0.027140
     6  N    0.000043   0.000046  -0.035214   0.003629   0.000820   0.030208
     7  H    0.000271   0.003525  -0.000335  -0.003672   0.000045  -0.000202
     8  C   -0.000026  -0.000009   0.000269   0.000091   0.000386  -0.000325
     9  C   -0.000005  -0.000002  -0.001167  -0.000076  -0.000330   0.000423
    10  C   -0.000000  -0.000000   0.000143   0.000001   0.000050  -0.000152
    11  C    0.000002  -0.000000   0.000031   0.000000  -0.000001  -0.000035
    12  C    0.000000   0.000000  -0.000025   0.000000   0.000004   0.000021
    13  H    0.000000  -0.000000  -0.000004  -0.000000   0.000004   0.000003
    14  H    0.000000   0.000000  -0.000000  -0.000000   0.000000   0.000000
    15  H   -0.000000  -0.000000   0.000000  -0.000000  -0.000000  -0.000000
    16  C    0.000075   0.000002  -0.000309  -0.000011  -0.000133   0.000644
    17  C   -0.000003  -0.000000  -0.003291  -0.000296  -0.001933   0.000595
    18  C    0.000000  -0.000000   0.003893   0.000251  -0.001745  -0.000637
    19  C   -0.000008   0.000006   0.001812   0.000391   0.002123  -0.001095
    20  C   -0.000000   0.000000  -0.003244  -0.000245   0.000478   0.000869
    21  H    0.000000  -0.000000   0.000145   0.000004   0.000123  -0.000087
    22  C    0.000001   0.000001  -0.001843  -0.000158   0.001712   0.000169
    23  H    0.000025  -0.000009   0.000058   0.000019   0.000020  -0.000014
    24  C    0.000000  -0.000000   0.003414   0.000677   0.002131  -0.000449
    25  H   -0.000000   0.000000  -0.000083  -0.000002   0.000113   0.000008
    26  H   -0.000000   0.000000  -0.000055  -0.000026   0.000117   0.000004
    27  H   -0.000000  -0.000000   0.000017   0.000007   0.000056  -0.000002
    28  F   -0.000014   0.000001   0.000001   0.000000   0.000000  -0.000006
    29  C    0.414933   0.414883   0.000054   0.000031   0.000011   0.000005
    30  H   -0.027789  -0.022223   0.000001  -0.000008  -0.000002  -0.000000
    31  H    0.562975  -0.021862  -0.000002   0.000001   0.000001  -0.000000
    32  H   -0.021862   0.584470  -0.000004  -0.000056  -0.000000   0.000000
    33  C   -0.000002  -0.000004   4.993305  -0.007927   0.296063   0.388759
    34  C    0.000001  -0.000056  -0.007927   4.950512   0.002151   0.003608
    35  C    0.000001  -0.000000   0.296063   0.002151   4.790833  -0.030084
    36  H   -0.000000   0.000000   0.388759   0.003608  -0.030084   0.563008
    37  H   -0.000000   0.000000   0.408460  -0.014078  -0.055666  -0.016689
    38  C   -0.000001  -0.000013  -0.013085   0.289192  -0.044713   0.000346
    39  H   -0.000007   0.000166   0.002070   0.400855   0.000691   0.000148
    40  H   -0.000000   0.000004  -0.014413   0.404154  -0.001342   0.000973
    41  H   -0.000000   0.000001  -0.108151  -0.013861   0.418658   0.006252
    42  H   -0.000000   0.000000  -0.029624  -0.000973   0.384186   0.000187
    43  H    0.000000   0.000016  -0.011123  -0.079162   0.002494   0.000505
    44  H   -0.000000   0.000002  -0.000033  -0.036539  -0.000803   0.000172
    45  N    0.000002   0.000015   0.258659   0.276148  -0.083748  -0.015667
    46  O   -0.000000   0.000000  -0.074841  -0.073623   0.286896   0.005112
    47  I   -0.001033   0.001911   0.000002  -0.000004   0.000011  -0.000023
              37         38         39         40         41         42
     1  C   -0.000049   0.000490  -0.000353  -0.000116   0.000649  -0.000011
     2  C    0.000031  -0.000346   0.000417   0.000076   0.000520   0.000013
     3  C    0.000093  -0.000782   0.002245   0.000099   0.000255  -0.000004
     4  C    0.000168  -0.004884   0.001172   0.003258  -0.001581   0.000182
     5  C   -0.004135   0.023786  -0.028608  -0.008469  -0.010216  -0.000416
     6  N    0.000107   0.002934  -0.000330  -0.000450   0.001531  -0.000671
     7  H   -0.000135  -0.000137  -0.002318  -0.000589  -0.000219   0.000002
     8  C   -0.000052   0.000023  -0.000026  -0.000010  -0.000436  -0.000005
     9  C   -0.000028  -0.000032   0.000000  -0.000003   0.000628   0.000099
    10  C   -0.000002  -0.000000  -0.000000  -0.000000  -0.000004  -0.000009
    11  C   -0.000000   0.000000  -0.000000  -0.000000  -0.000001  -0.000000
    12  C    0.000000  -0.000000   0.000000   0.000000  -0.000000  -0.000001
    13  H    0.000000  -0.000000   0.000000   0.000000   0.000009  -0.000001
    14  H    0.000000  -0.000000   0.000000   0.000000  -0.000000   0.000000
    15  H   -0.000000   0.000000  -0.000000  -0.000000  -0.000000  -0.000000
    16  C    0.000016  -0.000003   0.000002   0.000001   0.000072   0.000009
    17  C    0.000006   0.000209   0.000022   0.000007   0.005867   0.000874
    18  C   -0.000025   0.000158  -0.000012  -0.000002  -0.008392  -0.002363
    19  C   -0.000023  -0.000227  -0.000030  -0.000009  -0.003939  -0.000805
    20  C    0.000052   0.000074   0.000014   0.000010   0.007630   0.005649
    21  H   -0.000003  -0.000001  -0.000000  -0.000000  -0.000400  -0.000071
    22  C   -0.000003  -0.000977   0.000019   0.000002  -0.001368   0.000623
    23  H    0.000000  -0.000011  -0.000004   0.000000  -0.000153   0.000000
    24  C   -0.000080  -0.000995  -0.000038  -0.000021  -0.029702  -0.001527
    25  H    0.000003   0.000001   0.000000   0.000000   0.000256   0.000351
    26  H    0.000000   0.000046   0.000004   0.000001   0.000039   0.000006
    27  H    0.000000  -0.000028  -0.000000  -0.000000  -0.000089  -0.000069
    28  F   -0.000000  -0.000000   0.000000  -0.000000  -0.000000  -0.000000
    29  C   -0.000002   0.000061  -0.000158  -0.000014  -0.000002  -0.000000
    30  H    0.000000   0.000007   0.000005   0.000000   0.000002   0.000000
    31  H   -0.000000  -0.000001  -0.000007  -0.000000  -0.000000  -0.000000
    32  H    0.000000  -0.000013   0.000166   0.000004   0.000001   0.000000
    33  C    0.408460  -0.013085   0.002070  -0.014413  -0.108151  -0.029624
    34  C   -0.014078   0.289192   0.400855   0.404154  -0.013861  -0.000973
    35  C   -0.055666  -0.044713   0.000691  -0.001342   0.418658   0.384186
    36  H   -0.016689   0.000346   0.000148   0.000973   0.006252   0.000187
    37  H    0.602846  -0.000565   0.001130   0.009405   0.011935  -0.003724
    38  C   -0.000565   4.767467  -0.032160  -0.049244  -0.007603   0.007141
    39  H    0.001130  -0.032160   0.590294  -0.016326   0.001234   0.000104
    40  H    0.009405  -0.049244  -0.016326   0.601306   0.001407   0.000164
    41  H    0.011935  -0.007603   0.001234   0.001407   0.692115  -0.020335
    42  H   -0.003724   0.007141   0.000104   0.000164  -0.020335   0.590095
    43  H    0.001263   0.416580   0.005668   0.010491   0.016975  -0.000175
    44  H    0.000172   0.405303  -0.000452  -0.002988   0.001286  -0.000070
    45  N   -0.032594  -0.066566  -0.015077  -0.030170   0.016964   0.007958
    46  O    0.007134   0.298321   0.005429   0.007602  -0.050801  -0.028840
    47  I   -0.000000   0.000005   0.000003   0.000000  -0.000007  -0.000000
              43         44         45         46         47
     1  C   -0.000516  -0.000010  -0.002129   0.000070  -0.122157
     2  C    0.000387   0.000019   0.005220  -0.000024   0.337850
     3  C   -0.000584   0.000152   0.005682   0.000111  -0.082778
     4  C    0.002132  -0.000119  -0.070571   0.001277   0.013367
     5  C   -0.004732  -0.001959   0.407303  -0.003919   0.001185
     6  N   -0.000813  -0.000080  -0.119894  -0.000157   0.008724
     7  H   -0.001108   0.000057  -0.000245   0.000069  -0.000410
     8  C   -0.000023  -0.000001  -0.002502  -0.000016   0.032876
     9  C   -0.000033   0.000001  -0.000586   0.000048  -0.002310
    10  C   -0.000000  -0.000000  -0.000011   0.000000   0.001588
    11  C   -0.000000   0.000000   0.000003   0.000000   0.007594
    12  C    0.000000  -0.000000  -0.000000  -0.000000   0.000467
    13  H    0.000000   0.000000   0.000000  -0.000000   0.000031
    14  H   -0.000000   0.000000   0.000000   0.000000  -0.000018
    15  H   -0.000000  -0.000000  -0.000000   0.000000   0.000098
    16  C    0.000003   0.000000   0.000335   0.000000  -0.014169
    17  C    0.000164   0.000029   0.002015   0.000151   0.002930
    18  C   -0.000255  -0.000027  -0.001217  -0.000084   0.000049
    19  C    0.000319  -0.000058  -0.002082  -0.000377  -0.000811
    20  C    0.000893   0.000033   0.000862  -0.001775  -0.000013
    21  H   -0.000001  -0.000000  -0.000018  -0.000001   0.000000
    22  C    0.001253   0.000085   0.000962   0.000018  -0.000322
    23  H   -0.000030  -0.000001  -0.000018  -0.000003  -0.001641
    24  C   -0.002047  -0.000111  -0.001255   0.003724   0.000010
    25  H    0.000008   0.000001   0.000008  -0.000054  -0.000000
    26  H    0.000313   0.000002   0.000029  -0.000037   0.000052
    27  H    0.000014  -0.000005  -0.000005  -0.000006   0.000000
    28  F   -0.000000  -0.000000   0.000002  -0.000000  -0.004516
    29  C   -0.000026  -0.000006  -0.000625  -0.000000  -0.006725
    30  H    0.000001   0.000000   0.000022  -0.000000  -0.000201
    31  H    0.000000  -0.000000   0.000002  -0.000000  -0.001033
    32  H    0.000016   0.000002   0.000015   0.000000   0.001911
    33  C   -0.011123  -0.000033   0.258659  -0.074841   0.000002
    34  C   -0.079162  -0.036539   0.276148  -0.073623  -0.000004
    35  C    0.002494  -0.000803  -0.083748   0.286896   0.000011
    36  H    0.000505   0.000172  -0.015667   0.005112  -0.000023
    37  H    0.001263   0.000172  -0.032594   0.007134  -0.000000
    38  C    0.416580   0.405303  -0.066566   0.298321   0.000005
    39  H    0.005668  -0.000452  -0.015077   0.005429   0.000003
    40  H    0.010491  -0.002988  -0.030170   0.007602   0.000000
    41  H    0.016975   0.001286   0.016964  -0.050801  -0.000007
    42  H   -0.000175  -0.000070   0.007958  -0.028840  -0.000000
    43  H    0.654572  -0.033860   0.003942  -0.054093  -0.000002
    44  H   -0.033860   0.599851   0.009937  -0.033136  -0.000000
    45  N    0.003942   0.009937   6.562535   0.013138   0.000070
    46  O   -0.054093  -0.033136   0.013138   8.045349   0.000000
    47  I   -0.000002  -0.000000   0.000070   0.000000  24.846576
 Mulliken charges:
               1
     1  C    0.168030
     2  C   -0.089301
     3  C   -0.043103
     4  C   -0.163338
     5  C    0.172717
     6  N   -0.313030
     7  H    0.133412
     8  C   -0.138810
     9  C    0.139700
    10  C   -0.191618
    11  C   -0.219737
    12  C   -0.122096
    13  H    0.151513
    14  H    0.155301
    15  H    0.145663
    16  C    0.325425
    17  C    0.034530
    18  C   -0.200973
    19  C   -0.185845
    20  C   -0.174915
    21  H    0.146662
    22  C   -0.162345
    23  H    0.158522
    24  C   -0.136363
    25  H    0.146470
    26  H    0.149040
    27  H    0.148745
    28  F   -0.224674
    29  C   -0.265439
    30  H    0.114179
    31  H    0.118218
    32  H    0.086662
    33  C   -0.015022
    34  C   -0.045560
    35  C    0.013736
    36  H    0.087936
    37  H    0.085032
    38  C    0.010234
    39  H    0.084208
    40  H    0.085207
    41  H    0.072979
    42  H    0.092051
    43  H    0.070590
    44  H    0.093155
    45  N   -0.126829
    46  O   -0.352659
    47  I   -0.018259
 Sum of Mulliken charges =  -0.00000
 Mulliken charges with hydrogens summed into heavy atoms:
               1
     1  C    0.168030
     2  C   -0.089301
     3  C   -0.043103
     4  C   -0.029926
     5  C    0.172717
     6  N   -0.313030
     8  C   -0.138810
     9  C    0.139700
    10  C   -0.040105
    11  C   -0.074074
    12  C    0.033205
    16  C    0.325425
    17  C    0.034530
    18  C   -0.054311
    19  C   -0.027324
    20  C   -0.028444
    22  C   -0.013305
    24  C    0.012383
    28  F   -0.224674
    29  C    0.053620
    33  C    0.157946
    34  C    0.123854
    35  C    0.178766
    38  C    0.173979
    45  N   -0.126829
    46  O   -0.352659
    47  I   -0.018259
 Electronic spatial extent (au):  <R**2>=          19160.0337
 Charge=             -0.0000 electrons
 Dipole moment (field-independent basis, Debye):
    X=             -1.0342    Y=              0.4634    Z=              2.2291  Tot=              2.5007
 Quadrupole moment (field-independent basis, Debye-Ang):
   XX=           -174.1861   YY=           -180.0764   ZZ=           -152.6645
   XY=              2.5870   XZ=              2.7406   YZ=              3.8882
 Traceless Quadrupole moment (field-independent basis, Debye-Ang):
   XX=             -5.2104   YY=            -11.1008   ZZ=             16.3112
   XY=              2.5870   XZ=              2.7406   YZ=              3.8882
 Octapole moment (field-independent basis, Debye-Ang**2):
  XXX=           1406.3257  YYY=           1261.5055  ZZZ=           -276.6918  XYY=            468.3224
  XXY=            371.4807  XXZ=           -147.3669  XZZ=            428.5677  YZZ=            356.9978
  YYZ=           -109.3032  XYZ=            -13.1887
 Hexadecapole moment (field-independent basis, Debye-Ang**3):
 XXXX=         -13556.2207 YYYY=          -9113.7068 ZZZZ=          -4208.6682 XXXY=          -2478.2174
 XXXZ=           1683.7778 YYYX=          -2974.5870 YYYZ=           -170.2236 ZZZX=           1147.7918
 ZZZY=            -32.1135 XXYY=          -3621.3957 XXZZ=          -3008.4658 YYZZ=          -2033.6854
 XXYZ=            -45.9304 YYXZ=            407.6282 ZZXY=           -793.8265
 N-N= 2.848717076344D+03 E-N=-8.974452199009D+03  KE= 1.242967902722D+03
 No NMR shielding tensors so no spin-rotation constants.
 Leave Link  601 at Fri Jan 31 11:59:13 2025, MaxMem=  8589934592 cpu:               9.7 elap:               0.4
 (Enter /ihome/crc/install/gaussian/c01/avx2/tar/g16/l9999.exe)
 Unable to Open any file for archive entry.
 1\1\GINC-SMP-N256\SP\RB3LYP\def2TZVPP\C22H20F1I1N2O1\BIM12\31-Jan-2025
 \0\\#p b3lyp def2tzvpp scf=maxcycle=128 nosymm scrf=(smd,solvent=propy
 lethanoate) empiricaldispersion=gd3bj\\Title Card Required\\0,1\C,0,-1
 .768348,-1.973113,0.161633\C,0,-0.69945,-2.304246,0.998357\C,0,-0.5652
 19,-1.623339,2.227643\C,0,-1.525099,-0.676214,2.5534\C,0,-2.596327,-0.
 416439,1.663985\N,0,-2.676276,-1.058355,0.497089\H,0,-1.425591,-0.1374
 61,3.493686\C,0,-2.015968,-2.63971,-1.154467\C,0,-3.186539,-3.382568,-
 1.413062\C,0,-3.391092,-3.903659,-2.699029\C,0,-1.307373,-2.962326,-3.
 474809\C,0,-2.463415,-3.69949,-3.717524\H,0,-4.285963,-4.497097,-2.892
 512\H,0,-2.639597,-4.120617,-4.708347\H,0,-0.559742,-2.773376,-4.24556
 8\C,0,-1.115061,-2.448262,-2.201769\C,0,-4.207589,-3.64235,-0.358399\C
 ,0,-5.570294,-3.493943,-0.652522\C,0,-3.84072,-4.07784,0.923861\C,0,-6
 .541815,-3.769781,0.309592\H,0,-5.87022,-3.145874,-1.643228\C,0,-4.811
 684,-4.349245,1.885973\H,0,-2.78483,-4.222432,1.163229\C,0,-6.166084,-
 4.196011,1.582813\H,0,-7.597592,-3.641648,0.063909\H,0,-4.507566,-4.69
 2038,2.876674\H,0,-6.925043,-4.407495,2.337935\F,0,-0.017053,-1.719218
 ,-1.967813\C,0,0.562084,-1.906394,3.177177\H,0,0.529061,-2.95302,3.515
 711\H,0,1.533303,-1.760003,2.681589\H,0,0.509423,-1.25045,4.054725\C,0
 ,-4.750165,0.572143,1.066191\C,0,-3.959044,0.81202,3.317359\C,0,-5.808
 444,-0.399298,1.56991\H,0,-4.460615,0.338203,0.037864\H,0,-5.143071,1.
 600009,1.10787\C,0,-5.05017,-0.154477,3.770824\H,0,-3.09865,0.77238,3.
 9931\H,0,-4.351472,1.840586,3.341866\H,0,-5.414197,-1.431586,1.491643\
 H,0,-6.72719,-0.331902,0.970304\H,0,-4.633607,-1.181674,3.803817\H,0,-
 5.406466,0.107205,4.777196\N,0,-3.582359,0.505305,1.941836\O,0,-6.1601
 68,-0.107413,2.907052\I,0,0.61776,-3.848639,0.504383\\Version=ES64L-G1
 6RevC.01\HF=-1433.3200159\RMSD=4.166e-09\Dipole=-0.406904,0.1823107,0.
 8769979\Quadrupole=-3.8738403,-8.2531434,12.1269837,1.9233734,2.037579
 5,2.8908161\PG=C01 [X(C22H20F1I1N2O1)]\\@
 The archive entry for this job was punched.


 ERWIN WITH HIS PSI CAN DO
 CALCULATIONS QUITE A FEW.
 BUT ONE THING HAS NOT BEEN SEEN
 JUST WHAT DOES PSI REALLY MEAN.
 -- WALTER HUCKEL, TRANS. BY FELIX BLOCH
 Job cpu time:       0 days  2 hours 54 minutes  2.0 seconds.
 Elapsed time:       0 days  0 hours  5 minutes 27.8 seconds.
 File lengths (MBytes):  RWF=    893 Int=      0 D2E=      0 Chk=     77 Scr=      1
 Normal termination of Gaussian 16 at Fri Jan 31 11:59:14 2025.
