 Entering Gaussian System, Link 0=g16
 Initial command:
 /opt/packages/gaussian/g16RevC.01/g16/l1.exe "/local/Gau-47161.inp" -scrdir="/local/"
 Entering Link 1 = /opt/packages/gaussian/g16RevC.01/g16/l1.exe PID=     47162.
  
 Copyright (c) 1988-2019, Gaussian, Inc.  All Rights Reserved.
  
 This is part of the Gaussian(R) 16 program.  It is based on
 the Gaussian(R) 09 system (copyright 2009, Gaussian, Inc.),
 the Gaussian(R) 03 system (copyright 2003, Gaussian, Inc.),
 the Gaussian(R) 98 system (copyright 1998, Gaussian, Inc.),
 the Gaussian(R) 94 system (copyright 1995, Gaussian, Inc.),
 the Gaussian 92(TM) system (copyright 1992, Gaussian, Inc.),
 the Gaussian 90(TM) system (copyright 1990, Gaussian, Inc.),
 the Gaussian 88(TM) system (copyright 1988, Gaussian, Inc.),
 the Gaussian 86(TM) system (copyright 1986, Carnegie Mellon
 University), and the Gaussian 82(TM) system (copyright 1983,
 Carnegie Mellon University). Gaussian is a federally registered
 trademark of Gaussian, Inc.
  
 This software contains proprietary and confidential information,
 including trade secrets, belonging to Gaussian, Inc.
  
 This software is provided under written license and may be
 used, copied, transmitted, or stored only in accord with that
 written license.
  
 The following legend is applicable only to US Government
 contracts under FAR:
  
                    RESTRICTED RIGHTS LEGEND
  
 Use, reproduction and disclosure by the US Government is
 subject to restrictions as set forth in subparagraphs (a)
 and (c) of the Commercial Computer Software - Restricted
 Rights clause in FAR 52.227-19.
  
 Gaussian, Inc.
 340 Quinnipiac St., Bldg. 40, Wallingford CT 06492
  
  
 ---------------------------------------------------------------
 Warning -- This program may not be used in any manner that
 competes with the business of Gaussian, Inc. or will provide
 assistance to any competitor of Gaussian, Inc.  The licensee
 of this program is prohibited from giving any competitor of
 Gaussian, Inc. access to this program.  By using this program,
 the user acknowledges that Gaussian, Inc. is engaged in the
 business of creating and licensing software in the field of
 computational chemistry and represents and warrants to the
 licensee that it is not a competitor of Gaussian, Inc. and that
 it will not use this program in any manner prohibited above.
 ---------------------------------------------------------------
  

 Cite this work as:
 Gaussian 16, Revision C.01,
 M. J. Frisch, G. W. Trucks, H. B. Schlegel, G. E. Scuseria, 
 M. A. Robb, J. R. Cheeseman, G. Scalmani, V. Barone, 
 G. A. Petersson, H. Nakatsuji, X. Li, M. Caricato, A. V. Marenich, 
 J. Bloino, B. G. Janesko, R. Gomperts, B. Mennucci, H. P. Hratchian, 
 J. V. Ortiz, A. F. Izmaylov, J. L. Sonnenberg, D. Williams-Young, 
 F. Ding, F. Lipparini, F. Egidi, J. Goings, B. Peng, A. Petrone, 
 T. Henderson, D. Ranasinghe, V. G. Zakrzewski, J. Gao, N. Rega, 
 G. Zheng, W. Liang, M. Hada, M. Ehara, K. Toyota, R. Fukuda, 
 J. Hasegawa, M. Ishida, T. Nakajima, Y. Honda, O. Kitao, H. Nakai, 
 T. Vreven, K. Throssell, J. A. Montgomery, Jr., J. E. Peralta, 
 F. Ogliaro, M. J. Bearpark, J. J. Heyd, E. N. Brothers, K. N. Kudin, 
 V. N. Staroverov, T. A. Keith, R. Kobayashi, J. Normand, 
 K. Raghavachari, A. P. Rendell, J. C. Burant, S. S. Iyengar, 
 J. Tomasi, M. Cossi, J. M. Millam, M. Klene, C. Adamo, R. Cammi, 
 J. W. Ochterski, R. L. Martin, K. Morokuma, O. Farkas, 
 J. B. Foresman, and D. J. Fox, Gaussian, Inc., Wallingford CT, 2019.
 
 ******************************************
 Gaussian 16:  ES64L-G16RevC.01  3-Jul-2019
                11-Jun-2024 
 ******************************************
 %nprocshared=32
 Will use up to   32 processors via shared memory.
 %mem=64GB
 ----------------------------------------------------------------------
 #p b3lyp def2tzvpp scf=maxcycle=128 nosymm scrf=(smd,solvent=propyleth
 anoate) empiricaldispersion=gd3bj
 ----------------------------------------------------------------------
 1/38=1,172=1/1;
 2/12=2,15=1,17=6,18=5,40=1/2;
 3/5=44,7=202,11=2,25=1,30=1,70=32201,72=169,74=-5,124=41/1,2,3;
 4//1;
 5/5=2,7=128,38=5,53=169/2;
 6/7=2,8=2,9=2,10=2,28=1/1;
 99/5=1,9=1/99;
 Leave Link    1 at Tue Jun 11 19:46:37 2024, MaxMem=  8589934592 cpu:               1.0 elap:               0.0
 (Enter /opt/packages/gaussian/g16RevC.01/g16/l101.exe)
 -------------------
 Title Card Required
 -------------------
 Symbolic Z-matrix:
 Charge =  0 Multiplicity = 1
 C                    -2.55508   6.38283  -1.48115 
 C                    -2.58132   5.18442  -0.81158 
 C                    -1.36964   4.53297  -0.43953 
 C                    -0.12903   5.13798  -0.80478 
 C                    -0.13742   6.38472  -1.48962 
 C                    -1.32171   6.99593  -1.81633 
 H                    -3.49192   6.86579  -1.76272 
 H                    -3.53809   4.72053  -0.5709 
 C                    -1.35868   3.28403   0.2628 
 C                     1.09429   4.48185  -0.50366 
 H                     0.81925   6.83838  -1.75558 
 H                    -1.31896   7.95031  -2.3451 
 C                     1.09684   3.26196   0.11908 
 C                    -0.13505   2.68006   0.49973 
 H                     2.03348   4.95637  -0.79302 
 C                    -2.64864   2.63925   0.65994 
 C                    -3.04897   1.4312    0.11554 
 C                    -3.48762   3.24936   1.64764 
 C                    -4.26731   0.80095   0.46006 
 C                    -4.72983   2.6308    1.98287 
 C                    -3.11367   4.44303   2.32971 
 C                    -5.10075   1.40774   1.36279 
 C                    -5.57108   3.24113   2.9541 
 C                    -3.94409   5.00129   3.27012 
 H                    -2.15374   4.91088   2.1093 
 H                    -6.05359   0.94758   1.6303 
 C                    -5.19033   4.40115   3.58052 
 H                    -6.52122   2.76055   3.19476 
 H                    -3.64024   5.9125    3.78744 
 H                    -5.84014   4.86051   4.32697 
 S                    -0.05838   1.08979   1.24988 
 O                    -0.92061   1.03242   2.37985 
 O                     1.29513   0.68069   1.39919 
 S                    -1.96651   0.56003  -0.97288 
 O                    -1.48463   1.44408  -1.97151 
 O                    -2.55153  -0.68428  -1.33666 
 N                    -0.68629   0.13914   0.018 
 H                    -0.69618  -0.85509   0.2673 
 H                    -4.52474  -0.15063  -0.00396 
 H                     2.02413   2.73234   0.33445 
 
 ITRead=  0  0  0  0  0  0  0  0  0  0  0  0  0  0  0  0  0  0  0  0
 ITRead=  0  0  0  0  0  0  0  0  0  0  0  0  0  0  0  0  0  0  0  0
 MicOpt= -1 -1 -1 -1 -1 -1 -1 -1 -1 -1 -1 -1 -1 -1 -1 -1 -1 -1 -1 -1
 MicOpt= -1 -1 -1 -1 -1 -1 -1 -1 -1 -1 -1 -1 -1 -1 -1 -1 -1 -1 -1 -1
 NAtoms=     40 NQM=       40 NQMF=       0 NMMI=      0 NMMIF=      0
                NMic=       0 NMicF=      0.
                    Isotopes and Nuclear Properties:
 (Nuclear quadrupole moments (NQMom) in fm**2, nuclear magnetic moments (NMagM)
  in nuclear magnetons)

  Atom         1           2           3           4           5           6           7           8           9          10
 IAtWgt=          12          12          12          12          12          12           1           1          12          12
 AtmWgt=  12.0000000  12.0000000  12.0000000  12.0000000  12.0000000  12.0000000   1.0078250   1.0078250  12.0000000  12.0000000
 NucSpn=           0           0           0           0           0           0           1           1           0           0
 AtZEff=   0.0000000   0.0000000   0.0000000   0.0000000   0.0000000   0.0000000   0.0000000   0.0000000   0.0000000   0.0000000
 NQMom=    0.0000000   0.0000000   0.0000000   0.0000000   0.0000000   0.0000000   0.0000000   0.0000000   0.0000000   0.0000000
 NMagM=    0.0000000   0.0000000   0.0000000   0.0000000   0.0000000   0.0000000   2.7928460   2.7928460   0.0000000   0.0000000
 AtZNuc=   6.0000000   6.0000000   6.0000000   6.0000000   6.0000000   6.0000000   1.0000000   1.0000000   6.0000000   6.0000000

  Atom        11          12          13          14          15          16          17          18          19          20
 IAtWgt=           1           1          12          12           1          12          12          12          12          12
 AtmWgt=   1.0078250   1.0078250  12.0000000  12.0000000   1.0078250  12.0000000  12.0000000  12.0000000  12.0000000  12.0000000
 NucSpn=           1           1           0           0           1           0           0           0           0           0
 AtZEff=   0.0000000   0.0000000   0.0000000   0.0000000   0.0000000   0.0000000   0.0000000   0.0000000   0.0000000   0.0000000
 NQMom=    0.0000000   0.0000000   0.0000000   0.0000000   0.0000000   0.0000000   0.0000000   0.0000000   0.0000000   0.0000000
 NMagM=    2.7928460   2.7928460   0.0000000   0.0000000   2.7928460   0.0000000   0.0000000   0.0000000   0.0000000   0.0000000
 AtZNuc=   1.0000000   1.0000000   6.0000000   6.0000000   1.0000000   6.0000000   6.0000000   6.0000000   6.0000000   6.0000000

  Atom        21          22          23          24          25          26          27          28          29          30
 IAtWgt=          12          12          12          12           1           1          12           1           1           1
 AtmWgt=  12.0000000  12.0000000  12.0000000  12.0000000   1.0078250   1.0078250  12.0000000   1.0078250   1.0078250   1.0078250
 NucSpn=           0           0           0           0           1           1           0           1           1           1
 AtZEff=   0.0000000   0.0000000   0.0000000   0.0000000   0.0000000   0.0000000   0.0000000   0.0000000   0.0000000   0.0000000
 NQMom=    0.0000000   0.0000000   0.0000000   0.0000000   0.0000000   0.0000000   0.0000000   0.0000000   0.0000000   0.0000000
 NMagM=    0.0000000   0.0000000   0.0000000   0.0000000   2.7928460   2.7928460   0.0000000   2.7928460   2.7928460   2.7928460
 AtZNuc=   6.0000000   6.0000000   6.0000000   6.0000000   1.0000000   1.0000000   6.0000000   1.0000000   1.0000000   1.0000000

  Atom        31          32          33          34          35          36          37          38          39          40
 IAtWgt=          32          16          16          32          16          16          14           1           1           1
 AtmWgt=  31.9720718  15.9949146  15.9949146  31.9720718  15.9949146  15.9949146  14.0030740   1.0078250   1.0078250   1.0078250
 NucSpn=           0           0           0           0           0           0           2           1           1           1
 AtZEff=   0.0000000   0.0000000   0.0000000   0.0000000   0.0000000   0.0000000   0.0000000   0.0000000   0.0000000   0.0000000
 NQMom=    0.0000000   0.0000000   0.0000000   0.0000000   0.0000000   0.0000000   2.0440000   0.0000000   0.0000000   0.0000000
 NMagM=    0.0000000   0.0000000   0.0000000   0.0000000   0.0000000   0.0000000   0.4037610   2.7928460   2.7928460   2.7928460
 AtZNuc=  16.0000000   8.0000000   8.0000000  16.0000000   8.0000000   8.0000000   7.0000000   1.0000000   1.0000000   1.0000000
 Leave Link  101 at Tue Jun 11 19:46:38 2024, MaxMem=  8589934592 cpu:               1.8 elap:               0.1
 (Enter /opt/packages/gaussian/g16RevC.01/g16/l202.exe)
                          Input orientation:                          
 ---------------------------------------------------------------------
 Center     Atomic      Atomic             Coordinates (Angstroms)
 Number     Number       Type             X           Y           Z
 ---------------------------------------------------------------------
      1          6           0       -2.555080    6.382831   -1.481148
      2          6           0       -2.581315    5.184419   -0.811576
      3          6           0       -1.369640    4.532971   -0.439527
      4          6           0       -0.129031    5.137978   -0.804779
      5          6           0       -0.137415    6.384718   -1.489617
      6          6           0       -1.321707    6.995929   -1.816327
      7          1           0       -3.491916    6.865793   -1.762722
      8          1           0       -3.538085    4.720527   -0.570904
      9          6           0       -1.358675    3.284032    0.262797
     10          6           0        1.094287    4.481847   -0.503656
     11          1           0        0.819246    6.838384   -1.755582
     12          1           0       -1.318958    7.950307   -2.345103
     13          6           0        1.096843    3.261958    0.119081
     14          6           0       -0.135054    2.680064    0.499731
     15          1           0        2.033479    4.956373   -0.793022
     16          6           0       -2.648640    2.639253    0.659944
     17          6           0       -3.048974    1.431199    0.115539
     18          6           0       -3.487621    3.249364    1.647643
     19          6           0       -4.267307    0.800949    0.460064
     20          6           0       -4.729827    2.630797    1.982871
     21          6           0       -3.113669    4.443032    2.329705
     22          6           0       -5.100753    1.407742    1.362785
     23          6           0       -5.571081    3.241133    2.954096
     24          6           0       -3.944093    5.001291    3.270115
     25          1           0       -2.153735    4.910875    2.109299
     26          1           0       -6.053586    0.947583    1.630296
     27          6           0       -5.190328    4.401147    3.580520
     28          1           0       -6.521215    2.760546    3.194758
     29          1           0       -3.640244    5.912504    3.787435
     30          1           0       -5.840142    4.860507    4.326972
     31         16           0       -0.058378    1.089785    1.249876
     32          8           0       -0.920606    1.032425    2.379848
     33          8           0        1.295132    0.680691    1.399186
     34         16           0       -1.966509    0.560026   -0.972879
     35          8           0       -1.484627    1.444081   -1.971506
     36          8           0       -2.551527   -0.684275   -1.336663
     37          7           0       -0.686292    0.139136    0.018002
     38          1           0       -0.696184   -0.855088    0.267304
     39          1           0       -4.524743   -0.150633   -0.003957
     40          1           0        2.024127    2.732335    0.334453
 ---------------------------------------------------------------------
                    Distance matrix (angstroms):
                    1          2          3          4          5
     1  C    0.000000
     2  C    1.373028   0.000000
     3  C    2.431507   1.425118   0.000000
     4  C    2.809421   2.452733   1.427779   0.000000
     5  C    2.417681   2.805905   2.459682   1.422475   0.000000
     6  C    1.417548   2.424398   2.822063   2.428515   1.372176
     7  H    1.090962   2.135624   3.420082   3.900256   3.399808
     8  H    2.134970   1.090196   2.180502   3.442472   3.895911
     9  C    3.751704   2.502118   1.432909   2.467561   3.765194
    10  C    4.229316   3.754793   2.465292   1.420454   2.471867
    11  H    3.415980   3.897507   3.440662   2.166711   1.091673
    12  H    2.175177   3.405200   3.913052   3.420193   2.139853
    13  C    5.063311   4.253331   2.830381   2.423992   3.723296
    14  C    4.846740   3.738384   2.416541   2.782647   4.204994
    15  H    4.854191   4.620462   3.447528   2.170154   2.690389
    16  C    4.313630   2.940710   2.535911   3.838941   4.995535
    17  C    5.226088   3.894215   3.570609   4.807625   5.965824
    18  C    4.525216   3.257850   3.238791   4.567424   5.558482
    19  C    6.152839   4.865639   4.809753   6.126580   7.213580
    20  C    5.550379   4.352703   4.558194   5.935004   6.873161
    21  C    4.312475   3.271193   3.273892   4.383606   5.216843
    22  C    6.270560   5.033756   5.190047   6.582630   7.585592
    23  C    6.215941   5.186072   5.553164   6.880630   7.691127
    24  C    5.139310   4.307076   4.539667   5.583739   6.249777
    25  H    3.901159   2.964652   2.693349   3.555679   4.380634
    26  H    7.173740   5.997515   6.251282   7.654368   8.619592
    27  C    6.040868   5.168266   5.547595   6.737247   7.427838
    28  H    7.121466   6.119533   6.548912   7.906231   8.708094
    29  H    5.399700   4.775180   4.992591   5.832404   6.351384
    30  H    6.844221   6.093402   6.543102   7.683010   8.287160
    31  S    6.458200   5.232669   4.053273   4.540316   5.962163
    32  O    6.797473   5.493833   4.517115   5.255854   6.650804
    33  O    7.458878   6.340179   5.032091   5.172341   6.552351
    34  S    5.874505   4.667871   4.052778   4.935811   6.126960
    35  O    5.077162   4.066730   3.449844   4.104116   5.143646
    36  O    7.068584   5.892213   5.424147   6.328508   7.471412
    37  N    6.687567   5.452907   4.470132   5.096659   6.448370
    38  H    7.674637   6.418204   5.475795   6.114562   7.470862
    39  H    6.981964   5.735150   5.663969   6.923367   8.010409
    40  H    6.131204   5.341928   3.919055   3.423603   4.619458
                    6          7          8          9         10
     6  C    0.000000
     7  H    2.174768   0.000000
     8  H    3.411871   2.454532   0.000000
     9  C    4.254680   4.634917   2.740147   0.000000
    10  C    3.725687   5.319935   4.639004   2.835354   0.000000
    11  H    2.147601   4.311255   4.987496   4.631481   2.682580
    12  H    1.091077   2.497416   4.301603   5.345731   4.609218
    13  C    4.851570   6.130703   4.907755   2.459819   1.369649
    14  C    5.039738   5.823018   4.109789   1.384978   2.400935
    15  H    4.057612   5.925892   5.580975   3.926600   1.091325
    16  C    5.183946   4.944094   2.576393   1.495819   4.331122
    17  C    6.138548   5.767051   3.395602   2.512327   5.182323
    18  C    5.543196   4.970832   2.662483   2.539963   5.209701
    19  C    7.227468   6.505716   4.117979   3.829459   6.574531
    20  C    6.715919   5.787666   3.508417   3.840578   6.597689
    21  C    5.188255   4.770828   2.944599   2.948795   5.073099
    22  C    7.457599   6.492108   4.141935   4.328231   7.163257
    23  C    7.410304   6.301544   4.329816   4.998929   7.610687
    24  C    6.060312   5.386119   3.872609   4.321727   6.316363
    25  H    4.522196   4.539271   3.022606   2.586176   4.190614
    26  H    8.417385   7.286970   5.040648   5.419524   8.254506
    27  C    7.129171   6.124485   4.479535   5.190067   7.495558
    28  H    8.371638   7.113811   5.188526   5.960055   8.639272
    29  H    6.160485   5.633383   4.519554   4.953534   6.547979
    30  H    7.919369   6.827863   5.413709   6.251907   8.459590
    31  S    6.773488   7.363912   5.348447   2.734925   3.988683
    32  O    7.302886   7.602677   5.400021   3.121465   4.926754
    33  O    7.554442   8.436171   6.600115   3.887346   4.255577
    34  S    6.522884   6.535550   4.465557   3.052305   4.996931
    35  O    5.556405   5.785133   4.112599   2.897135   4.246575
    36  O    7.792822   7.620327   5.547213   4.441692   6.377670
    37  N    7.126298   7.502694   5.428506   3.225274   4.722470
    38  H    8.146856   8.458672   6.313991   4.191805   5.681817
    39  H    8.038499   7.306861   5.002312   4.678896   7.299525
    40  H    5.830840   7.204884   5.975850   3.428244   2.151237
                   11         12         13         14         15
    11  H    0.000000
    12  H    2.481093   0.000000
    13  C    4.047499   5.821419   0.000000
    14  C    4.825842   6.104930   1.414590   0.000000
    15  H    2.437796   4.755148   2.140154   3.399313   0.000000
    16  C    5.957659   6.245451   3.835223   2.519017   5.422397
    17  C    6.906654   7.179588   4.532051   3.193462   6.251693
    18  C    6.558362   6.537888   4.832595   3.589082   6.273219
    19  C    8.199557   8.226484   5.911594   4.539621   7.650992
    20  C    7.903925   7.659150   6.149972   4.828465   7.671779
    21  C    6.155900   6.113575   4.900021   3.915228   6.042191
    22  C    8.617568   8.417575   6.587497   5.198253   8.254547
    23  C    8.715363   8.266703   7.245616   5.990751   8.649409
    24  C    7.163933   6.864306   6.193975   5.250895   7.227895
    25  H    5.243206   5.456803   4.152849   3.412081   5.094929
    26  H    9.664446   9.341233   7.666077   6.269664   9.345774
    27  C    8.398160   7.918147   7.266900   6.165159   8.462832
    28  H    9.747666   9.202563   8.230796   6.932005   9.690554
    29  H    7.174214   6.866515   6.551504   5.791720   7.354312
    30  H    9.233467   8.631602   8.269430   7.207644   9.392414
    31  S    6.545945   7.847273   2.707687   1.759995   4.847659
    32  O    7.337440   8.386950   3.761912   2.620429   5.847315
    33  O    6.935143   8.584899   2.888066   2.617622   4.861316
    34  S    6.913091   7.544440   4.228113   3.165023   5.946438
    35  O    5.869664   6.519049   3.786716   3.075063   5.109020
    36  O    8.253969   8.780215   5.567993   4.531055   7.289358
    37  N    7.091697   8.185287   3.597472   2.644285   5.591126
    38  H    8.098031   9.205840   4.492993   3.586947   6.507567
    39  H    8.970661   9.021267   6.577473   5.247468   8.349516
    40  H    4.762313   6.751553   1.089377   2.166128   2.493518
                   16         17         18         19         20
    16  C    0.000000
    17  C    1.384210   0.000000
    18  C    1.432367   2.417742   0.000000
    19  C    2.457518   1.414301   2.830723   0.000000
    20  C    2.466079   2.784103   1.427613   2.425121   0.000000
    21  C    2.501594   3.738697   1.424743   4.253376   2.452847
    22  C    2.832572   2.401243   2.464733   1.370305   1.420548
    23  C    3.763782   4.206458   2.459206   3.724852   1.422497
    24  C    3.751055   4.847488   2.431055   5.063964   2.809558
    25  H    2.739677   4.109097   2.180137   4.907001   3.442527
    26  H    3.923900   3.399421   3.447125   2.140499   2.170220
    27  C    4.253729   5.041040   2.821671   4.852900   2.428720
    28  H    4.629993   4.827547   3.440233   4.049527   2.166697
    29  H    4.634507   5.823617   3.419696   6.131280   3.900416
    30  H    5.344787   6.106303   3.912664   5.822954   3.420412
    31  S    3.075439   3.216667   4.072064   4.292122   4.973373
    32  O    2.919943   3.133060   3.469944   3.865173   4.150006
    33  O    4.464950   4.591543   5.434569   5.642441   6.359539
    34  S    2.730311   1.765029   4.051352   2.721220   4.545380
    35  O    3.115749   2.608276   4.513233   3.750928   5.251354
    36  O    3.878364   2.613728   5.025522   2.894481   5.172427
    37  N    3.242450   2.694663   4.491847   3.668390   5.139967
    38  H    4.022023   3.284168   5.152085   3.941134   5.600432
    39  H    3.426951   2.166649   3.919615   1.089540   3.424310
    40  H    4.685014   5.241873   5.689565   6.582414   6.952948
                   21         22         23         24         25
    21  C    0.000000
    22  C    3.754520   0.000000
    23  C    2.805940   2.472813   0.000000
    24  C    1.373182   4.229582   2.417667   0.000000
    25  H    1.090380   4.638334   3.896149   2.135662   0.000000
    26  H    4.620655   1.091421   2.691771   4.855051   5.580857
    27  C    2.424625   3.726506   1.372229   1.417613   3.412508
    28  H    3.897492   2.684011   1.091621   3.415871   4.987687
    29  H    2.135792   5.320234   3.399825   1.090987   2.455425
    30  H    3.405439   4.610281   2.139989   2.175263   4.302349
    31  S    4.663164   5.053651   6.158129   5.871970   4.441830
    32  O    4.055155   4.318438   5.180258   5.068130   4.078747
    33  O    5.870145   6.437179   7.491227   7.043965   5.503944
    34  S    5.225014   3.999679   5.966775   6.452803   5.335238
    35  O    5.490710   4.918860   6.647560   6.795389   5.396233
    36  O    6.328312   4.261702   6.552644   7.448980   6.583206
    37  N    5.455241   4.785945   6.488775   6.695525   5.412615
    38  H    6.178010   5.071559   6.911042   7.339139   6.226053
    39  H    5.342178   2.151349   4.620495   6.131804   5.975483
    40  H    5.771002   7.319558   8.050378   7.027512   5.034942
                   26         27         28         29         30
    26  H    0.000000
    27  C    4.059026   0.000000
    28  H    2.439888   2.147474   0.000000
    29  H    5.926880   2.174804   4.311160   0.000000
    30  H    4.756952   1.091082   2.481049   2.497469   0.000000
    31  S    6.008948   6.537119   6.952861   6.521318   7.557490
    32  O    5.188112   5.569598   5.917542   5.761328   6.530493
    33  O    7.357194   7.788530   8.285237   7.578492   8.772396
    34  S    4.861164   6.773527   6.554146   7.356018   7.847776
    35  O    5.839082   7.300784   7.334206   7.601243   8.385303
    36  O    4.871368   7.550065   6.939668   8.423727   8.581163
    37  N    5.662237   7.151406   7.142121   7.501082   8.211013
    38  H    5.814562   7.668294   7.454783   8.176742   8.695357
    39  H    2.492834   5.831825   4.763679   7.205458   6.752684
    40  H    8.373410   8.085187   9.011382   7.356742   9.072819
                   31         32         33         34         35
    31  S    0.000000
    32  O    1.422520   0.000000
    33  O    1.421844   2.448450   0.000000
    34  S    2.976953   3.543706   4.034793   0.000000
    35  O    3.540765   4.407024   4.435244   1.418104   0.000000
    36  O    4.006653   4.406747   4.913735   1.422276   2.463981
    37  N    1.677952   2.535978   2.475276   1.672707   2.509654
    38  H    2.270413   2.841815   2.757737   2.270314   3.304556
    39  H    4.801994   4.480174   6.044076   2.826377   3.956851
    40  H    2.805850   3.967970   2.423702   4.727919   4.391856
                   36         37         38         39         40
    36  O    0.000000
    37  N    2.447902   0.000000
    38  H    2.458492   1.025052   0.000000
    39  H    2.440176   3.849436   3.902269   0.000000
    40  H    5.949997   3.764465   4.502689   7.163360   0.000000
 Symmetry turned off by external request.
 Stoichiometry    C20H13NO4S2
 Framework group  C1[X(C20H13NO4S2)]
 Deg. of freedom   114
 Full point group                 C1      NOp   1
 Rotational constants (GHZ):           0.2093198           0.2057341           0.1433291
 Leave Link  202 at Tue Jun 11 19:46:38 2024, MaxMem=  8589934592 cpu:               0.4 elap:               0.0
 (Enter /opt/packages/gaussian/g16RevC.01/g16/l301.exe)
 Standard basis: def2TZVPP (5D, 7F)
 Ernie: Thresh=  0.10000D-02 Tol=  0.10000D-05 Strict=F.
  1041 basis functions,  1634 primitive gaussians,  1191 cartesian basis functions
   102 alpha electrons      102 beta electrons
       nuclear repulsion energy      2960.6357612834 Hartrees.
 IExCor=  402 DFT=T Ex+Corr=B3LYP ExCW=0 ScaHFX=  0.200000
 ScaDFX=  0.800000  0.720000  1.000000  0.810000 ScalE2=  1.000000  1.000000
 IRadAn=      5 IRanWt=     -1 IRanGd=            0 ICorTp=0 IEmpDi=141
 NAtoms=   40 NActive=   40 NUniq=   40 SFac= 1.00D+00 NAtFMM=   60 NAOKFM=F Big=F
 Integral buffers will be    131072 words long.
 Raffenetti 2 integral format.
 Two-electron integral symmetry is turned off.
 R6Disp:  Grimme-D3(BJ) Dispersion energy=       -0.1268214908 Hartrees.
 Nuclear repulsion after empirical dispersion term =     2960.5089397926 Hartrees.
 ------------------------------------------------------------------------------
 Polarizable Continuum Model (PCM)
 =================================
 Model                : PCM.
 Atomic radii         : SMD-Coulomb.
 Polarization charges : Total charges.
 Charge compensation  : None.
 Solution method      : On-the-fly selection.
 Cavity type          : VdW (van der Waals Surface) (Alpha=1.000).
 Cavity algorithm     : GePol (No added spheres)
                        Default sphere list used, NSphG=   40.
                        Lebedev-Laikov grids with approx.  5.0 points / Ang**2.
                        Smoothing algorithm: York/Karplus (Gamma=1.0000).
                        Polarization charges: spherical gaussians, with
                                              point-specific exponents (IZeta= 3).
                        Self-potential: point-specific (ISelfS= 7).
                        Self-field    : sphere-specific E.n sum rule (ISelfD= 2).
 Solvent              : PropylEthanoate, Eps=   5.520500 Eps(inf)=   1.916010
 ------------------------------------------------------------------------------
 GePol: Number of generator spheres                  =      40
 GePol: Total number of spheres                      =      40
 GePol: Number of exposed spheres                    =      40 (100.00%)
 GePol: Number of points                             =    3258
 GePol: Average weight of points                     =       0.12
 GePol: Minimum weight of points                     =   0.53D-10
 GePol: Maximum weight of points                     =    0.19582
 GePol: Number of points with low weight             =     178
 GePol: Fraction of low-weight points (<1% of avg)   =       5.46%
 GePol: Cavity surface area                          =    375.169 Ang**2
 GePol: Cavity volume                                =    415.019 Ang**3
 ------------------------------------------------------------------------------
 Atomic radii for non-electrostatic terms: SMD-CDS.
 ------------------------------------------------------------------------------
 PCM non-electrostatic energy =        -0.0120859633 Hartrees.
 Nuclear repulsion after PCM non-electrostatic terms =     2960.4968538292 Hartrees.
 Leave Link  301 at Tue Jun 11 19:46:38 2024, MaxMem=  8589934592 cpu:               3.6 elap:               0.1
 (Enter /opt/packages/gaussian/g16RevC.01/g16/l302.exe)
 NPDir=0 NMtPBC=     1 NCelOv=     1 NCel=       1 NClECP=     1 NCelD=      1
         NCelK=      1 NCelE2=     1 NClLst=     1 CellRange=     0.0.
 One-electron integrals computed using PRISM.
   1 Symmetry operations used in ECPInt.
 ECPInt:  NShTT=   72771 NPrTT=  217470 LenC2=   62614 LenP2D=  131786.
 LDataN:  DoStor=T MaxTD1= 6 Len=  172
 NBasis=  1041 RedAO= T EigKep=  2.96D-06  NBF=  1041
 NBsUse=  1041 1.00D-06 EigRej= -1.00D+00 NBFU=  1041
 Precomputing XC quadrature grid using
 IXCGrd= 4 IRadAn=           5 IRanWt=          -1 IRanGd=           0 AccXCQ= 0.00D+00.
 Generated NRdTot=       0 NPtTot=           0 NUsed=           0 NTot=          32
 NSgBfM=  1177  1177  1177  1177  1177 MxSgAt=    40 MxSgA2=    40.
 Leave Link  302 at Tue Jun 11 19:46:40 2024, MaxMem=  8589934592 cpu:              49.1 elap:               1.6
 (Enter /opt/packages/gaussian/g16RevC.01/g16/l303.exe)
 DipDrv:  MaxL=1.
 Leave Link  303 at Tue Jun 11 19:46:40 2024, MaxMem=  8589934592 cpu:               4.7 elap:               0.2
 (Enter /opt/packages/gaussian/g16RevC.01/g16/l401.exe)
 ExpMin= 9.52D-02 ExpMax= 6.07D+04 ExpMxC= 2.07D+03 IAcc=3 IRadAn=         5 AccDes= 0.00D+00
 Harris functional with IExCor=  402 and IRadAn=       5 diagonalized for initial guess.
 HarFok:  IExCor=  402 AccDes= 0.00D+00 IRadAn=         5 IDoV= 1 UseB2=F ITyADJ=14
 ICtDFT=  3500011 ScaDFX=  1.000000  1.000000  1.000000  1.000000
 FoFCou: FMM=F IPFlag=           0 FMFlag=      100000 FMFlg1=           0
         NFxFlg=           0 DoJE=T BraDBF=F KetDBF=T FulRan=T
         wScrn=  0.000000 ICntrl=       500 IOpCl=  0 I1Cent=   200000004 NGrid=           0
         NMat0=    1 NMatS0=      1 NMatT0=    0 NMatD0=    1 NMtDS0=    0 NMtDT0=    0
 Symmetry not used in FoFCou.
 Harris En= -1922.66693950433    
 JPrj=0 DoOrth=F DoCkMO=F.
 Leave Link  401 at Tue Jun 11 19:46:44 2024, MaxMem=  8589934592 cpu:             112.7 elap:               3.6
 (Enter /opt/packages/gaussian/g16RevC.01/g16/l502.exe)
 Two-electron integral symmetry not used.
 Closed shell SCF:
 Using DIIS extrapolation, IDIIS=  1040.
 NGot=  8589934592 LenX=  8587051237 LenY=  8585631565
 Requested convergence on RMS density matrix=1.00D-08 within 128 cycles.
 Requested convergence on MAX density matrix=1.00D-06.
 Requested convergence on             energy=1.00D-06.
 No special actions if energy rises.
 Fock matrices will be formed incrementally for  20 cycles.

 Cycle   1  Pass 1  IDiag  1:
 FoFJK:  IHMeth= 1 ICntrl=       0 DoSepK=F KAlg= 0 I1Cent=           0 FoldK=F
 IRaf= 790000000 NMat=       1 IRICut=       1 DoRegI=T DoRafI=F ISym2E= 0 IDoP0=0 IntGTp=1.
 FoFCou: FMM=F IPFlag=           0 FMFlag=      100000 FMFlg1=           0
         NFxFlg=           0 DoJE=F BraDBF=F KetDBF=F FulRan=T
         wScrn=  0.000000 ICntrl=         0 IOpCl=  0 I1Cent=           0 NGrid=           0
         NMat0=    1 NMatS0=      1 NMatT0=    0 NMatD0=    1 NMtDS0=    0 NMtDT0=    0
 Symmetry not used in FoFCou.
 Inv3:  Mode=1 IEnd=    31843692.
 Iteration    1 A*A^-1 deviation from unit magnitude is 4.00D-15 for    728.
 Iteration    1 A*A^-1 deviation from orthogonality  is 2.22D-15 for   1458    895.
 Iteration    1 A^-1*A deviation from unit magnitude is 3.77D-15 for    728.
 Iteration    1 A^-1*A deviation from orthogonality  is 1.72D-15 for   1708   1672.
 E= -1921.68835538733    
 DIIS: error= 1.81D-02 at cycle   1 NSaved=   1.
 NSaved= 1 IEnMin= 1 EnMin= -1921.68835538733     IErMin= 1 ErrMin= 1.81D-02
 ErrMax= 1.81D-02  0.00D+00 EMaxC= 1.00D-01 BMatC= 1.22D+00 BMatP= 1.22D+00
 IDIUse=3 WtCom= 8.19D-01 WtEn= 1.81D-01
 Coeff-Com:  0.100D+01
 Coeff-En:   0.100D+01
 Coeff:      0.100D+01
 Gap=     0.171 Goal=   None    Shift=    0.000
 GapD=    0.171 DampG=1.000 DampE=0.500 DampFc=0.5000 IDamp=-1.
 Damping current iteration by 5.00D-01
 RMSDP=5.49D-03 MaxDP=1.46D+00              OVMax= 2.80D-01

 Cycle   2  Pass 1  IDiag  1:
 RMSU=  2.70D-03    CP:  1.09D+00
 E= -1921.76348822253     Delta-E=       -0.075132835195 Rises=F Damp=T
 DIIS: error= 1.14D-02 at cycle   2 NSaved=   2.
 NSaved= 2 IEnMin= 2 EnMin= -1921.76348822253     IErMin= 2 ErrMin= 1.14D-02
 ErrMax= 1.14D-02  0.00D+00 EMaxC= 1.00D-01 BMatC= 2.94D-01 BMatP= 1.22D+00
 IDIUse=3 WtCom= 8.86D-01 WtEn= 1.14D-01
 Coeff-Com:  0.285D+00 0.715D+00
 Coeff-En:   0.464D+00 0.536D+00
 Coeff:      0.305D+00 0.695D+00
 Gap=     0.209 Goal=   None    Shift=    0.000
 RMSDP=1.92D-03 MaxDP=4.44D-01 DE=-7.51D-02 OVMax= 2.35D-01

 Cycle   3  Pass 1  IDiag  1:
 RMSU=  1.45D-03    CP:  1.05D+00  5.41D-01
 E= -1922.44240264941     Delta-E=       -0.678914426889 Rises=F Damp=F
 DIIS: error= 9.08D-03 at cycle   3 NSaved=   3.
 NSaved= 3 IEnMin= 3 EnMin= -1922.44240264941     IErMin= 3 ErrMin= 9.08D-03
 ErrMax= 9.08D-03  0.00D+00 EMaxC= 1.00D-01 BMatC= 1.62D-01 BMatP= 2.94D-01
 IDIUse=3 WtCom= 9.09D-01 WtEn= 9.08D-02
 Coeff-Com:  0.849D-01 0.426D+00 0.489D+00
 Coeff-En:   0.000D+00 0.000D+00 0.100D+01
 Coeff:      0.772D-01 0.387D+00 0.535D+00
 Gap=     0.160 Goal=   None    Shift=    0.000
 RMSDP=1.30D-03 MaxDP=1.58D-01 DE=-6.79D-01 OVMax= 9.12D-02

 Cycle   4  Pass 1  IDiag  1:
 RMSU=  6.73D-04    CP:  1.03D+00  5.32D-01  2.38D-01
 E= -1922.57094340773     Delta-E=       -0.128540758315 Rises=F Damp=F
 DIIS: error= 3.21D-03 at cycle   4 NSaved=   4.
 NSaved= 4 IEnMin= 4 EnMin= -1922.57094340773     IErMin= 4 ErrMin= 3.21D-03
 ErrMax= 3.21D-03  0.00D+00 EMaxC= 1.00D-01 BMatC= 2.26D-02 BMatP= 1.62D-01
 IDIUse=3 WtCom= 9.68D-01 WtEn= 3.21D-02
 Coeff-Com:  0.806D-02 0.115D+00 0.305D+00 0.572D+00
 Coeff-En:   0.000D+00 0.000D+00 0.129D+00 0.871D+00
 Coeff:      0.780D-02 0.111D+00 0.299D+00 0.582D+00
 Gap=     0.156 Goal=   None    Shift=    0.000
 RMSDP=3.84D-04 MaxDP=7.95D-02 DE=-1.29D-01 OVMax= 4.17D-02

 Cycle   5  Pass 1  IDiag  1:
 RMSU=  1.67D-04    CP:  1.03D+00  5.22D-01  4.36D-01  7.20D-01
 E= -1922.58972359245     Delta-E=       -0.018780184722 Rises=F Damp=F
 DIIS: error= 9.43D-04 at cycle   5 NSaved=   5.
 NSaved= 5 IEnMin= 5 EnMin= -1922.58972359245     IErMin= 5 ErrMin= 9.43D-04
 ErrMax= 9.43D-04  0.00D+00 EMaxC= 1.00D-01 BMatC= 2.18D-03 BMatP= 2.26D-02
 IDIUse=3 WtCom= 9.91D-01 WtEn= 9.43D-03
 Coeff-Com: -0.468D-02 0.264D-01 0.119D+00 0.330D+00 0.529D+00
 Coeff-En:   0.000D+00 0.000D+00 0.000D+00 0.468D-01 0.953D+00
 Coeff:     -0.464D-02 0.262D-01 0.118D+00 0.327D+00 0.533D+00
 Gap=     0.153 Goal=   None    Shift=    0.000
 RMSDP=8.60D-05 MaxDP=1.55D-02 DE=-1.88D-02 OVMax= 1.90D-02

 Cycle   6  Pass 1  IDiag  1:
 RMSU=  4.55D-05    CP:  1.03D+00  5.24D-01  4.10D-01  7.66D-01  6.79D-01
 E= -1922.59156808504     Delta-E=       -0.001844492589 Rises=F Damp=F
 DIIS: error= 4.72D-04 at cycle   6 NSaved=   6.
 NSaved= 6 IEnMin= 6 EnMin= -1922.59156808504     IErMin= 6 ErrMin= 4.72D-04
 ErrMax= 4.72D-04  0.00D+00 EMaxC= 1.00D-01 BMatC= 3.69D-04 BMatP= 2.18D-03
 IDIUse=3 WtCom= 9.95D-01 WtEn= 4.72D-03
 Coeff-Com: -0.363D-02 0.469D-02 0.415D-01 0.143D+00 0.339D+00 0.475D+00
 Coeff-En:   0.000D+00 0.000D+00 0.000D+00 0.000D+00 0.138D+00 0.862D+00
 Coeff:     -0.361D-02 0.467D-02 0.413D-01 0.142D+00 0.338D+00 0.477D+00
 Gap=     0.154 Goal=   None    Shift=    0.000
 RMSDP=5.52D-05 MaxDP=1.15D-02 DE=-1.84D-03 OVMax= 7.54D-03

 Cycle   7  Pass 1  IDiag  1:
 RMSU=  2.86D-05    CP:  1.03D+00  5.30D-01  4.30D-01  7.40D-01  8.28D-01
                    CP:  6.56D-01
 E= -1922.59189802825     Delta-E=       -0.000329943212 Rises=F Damp=F
 DIIS: error= 1.80D-04 at cycle   7 NSaved=   7.
 NSaved= 7 IEnMin= 7 EnMin= -1922.59189802825     IErMin= 7 ErrMin= 1.80D-04
 ErrMax= 1.80D-04  0.00D+00 EMaxC= 1.00D-01 BMatC= 3.88D-05 BMatP= 3.69D-04
 IDIUse=3 WtCom= 9.98D-01 WtEn= 1.80D-03
 Coeff-Com: -0.143D-02-0.219D-03 0.955D-02 0.417D-01 0.135D+00 0.299D+00
 Coeff-Com:  0.517D+00
 Coeff-En:   0.000D+00 0.000D+00 0.000D+00 0.000D+00 0.000D+00 0.865D-01
 Coeff-En:   0.913D+00
 Coeff:     -0.143D-02-0.219D-03 0.953D-02 0.416D-01 0.134D+00 0.299D+00
 Coeff:      0.517D+00
 Gap=     0.154 Goal=   None    Shift=    0.000
 RMSDP=1.62D-05 MaxDP=3.47D-03 DE=-3.30D-04 OVMax= 1.78D-03

 Cycle   8  Pass 1  IDiag  1:
 RMSU=  7.32D-06    CP:  1.03D+00  5.30D-01  4.25D-01  7.49D-01  7.82D-01
                    CP:  6.82D-01  7.05D-01
 E= -1922.59193598602     Delta-E=       -0.000037957764 Rises=F Damp=F
 DIIS: error= 2.55D-05 at cycle   8 NSaved=   8.
 NSaved= 8 IEnMin= 8 EnMin= -1922.59193598602     IErMin= 8 ErrMin= 2.55D-05
 ErrMax= 2.55D-05  0.00D+00 EMaxC= 1.00D-01 BMatC= 1.64D-06 BMatP= 3.88D-05
 IDIUse=1 WtCom= 1.00D+00 WtEn= 0.00D+00
 Coeff-Com: -0.415D-03-0.542D-03 0.122D-02 0.935D-02 0.416D-01 0.114D+00
 Coeff-Com:  0.250D+00 0.584D+00
 Coeff:     -0.415D-03-0.542D-03 0.122D-02 0.935D-02 0.416D-01 0.114D+00
 Coeff:      0.250D+00 0.584D+00
 Gap=     0.154 Goal=   None    Shift=    0.000
 RMSDP=4.06D-06 MaxDP=6.11D-04 DE=-3.80D-05 OVMax= 3.72D-04

 Cycle   9  Pass 1  IDiag  1:
 RMSU=  1.79D-06    CP:  1.03D+00  5.29D-01  4.24D-01  7.50D-01  7.85D-01
                    CP:  6.89D-01  6.84D-01  7.34D-01
 E= -1922.59193733700     Delta-E=       -0.000001350979 Rises=F Damp=F
 DIIS: error= 1.03D-05 at cycle   9 NSaved=   9.
 NSaved= 9 IEnMin= 9 EnMin= -1922.59193733700     IErMin= 9 ErrMin= 1.03D-05
 ErrMax= 1.03D-05  0.00D+00 EMaxC= 1.00D-01 BMatC= 2.81D-07 BMatP= 1.64D-06
 IDIUse=1 WtCom= 1.00D+00 WtEn= 0.00D+00
 Coeff-Com: -0.576D-04-0.219D-03-0.445D-03 0.907D-04 0.716D-02 0.282D-01
 Coeff-Com:  0.745D-01 0.324D+00 0.567D+00
 Coeff:     -0.576D-04-0.219D-03-0.445D-03 0.907D-04 0.716D-02 0.282D-01
 Coeff:      0.745D-01 0.324D+00 0.567D+00
 Gap=     0.154 Goal=   None    Shift=    0.000
 RMSDP=1.06D-06 MaxDP=1.34D-04 DE=-1.35D-06 OVMax= 1.38D-04

 Cycle  10  Pass 1  IDiag  1:
 RMSU=  5.61D-07    CP:  1.03D+00  5.29D-01  4.24D-01  7.50D-01  7.86D-01
                    CP:  6.92D-01  6.97D-01  7.88D-01  7.83D-01
 E= -1922.59193759112     Delta-E=       -0.000000254119 Rises=F Damp=F
 DIIS: error= 3.49D-06 at cycle  10 NSaved=  10.
 NSaved=10 IEnMin=10 EnMin= -1922.59193759112     IErMin=10 ErrMin= 3.49D-06
 ErrMax= 3.49D-06  0.00D+00 EMaxC= 1.00D-01 BMatC= 3.10D-08 BMatP= 2.81D-07
 IDIUse=1 WtCom= 1.00D+00 WtEn= 0.00D+00
 Coeff-Com: -0.450D-05-0.613D-04-0.350D-03-0.750D-03 0.622D-03 0.638D-02
 Coeff-Com:  0.201D-01 0.128D+00 0.317D+00 0.529D+00
 Coeff:     -0.450D-05-0.613D-04-0.350D-03-0.750D-03 0.622D-03 0.638D-02
 Coeff:      0.201D-01 0.128D+00 0.317D+00 0.529D+00
 Gap=     0.154 Goal=   None    Shift=    0.000
 RMSDP=4.03D-07 MaxDP=5.92D-05 DE=-2.54D-07 OVMax= 3.46D-05

 Cycle  11  Pass 1  IDiag  1:
 RMSU=  2.16D-07    CP:  1.03D+00  5.29D-01  4.24D-01  7.50D-01  7.86D-01
                    CP:  6.92D-01  6.98D-01  8.05D-01  7.88D-01  7.13D-01
 E= -1922.59193761815     Delta-E=       -0.000000027034 Rises=F Damp=F
 DIIS: error= 6.36D-07 at cycle  11 NSaved=  11.
 NSaved=11 IEnMin=11 EnMin= -1922.59193761815     IErMin=11 ErrMin= 6.36D-07
 ErrMax= 6.36D-07  0.00D+00 EMaxC= 1.00D-01 BMatC= 1.82D-09 BMatP= 3.10D-08
 IDIUse=1 WtCom= 1.00D+00 WtEn= 0.00D+00
 Coeff-Com:  0.889D-06 0.100D-06-0.116D-03-0.357D-03-0.614D-03-0.506D-03
 Coeff-Com: -0.307D-03 0.157D-01 0.686D-01 0.233D+00 0.685D+00
 Coeff:      0.889D-06 0.100D-06-0.116D-03-0.357D-03-0.614D-03-0.506D-03
 Coeff:     -0.307D-03 0.157D-01 0.686D-01 0.233D+00 0.685D+00
 Gap=     0.154 Goal=   None    Shift=    0.000
 RMSDP=9.80D-08 MaxDP=8.46D-06 DE=-2.70D-08 OVMax= 1.08D-05

 Cycle  12  Pass 1  IDiag  1:
 RMSU=  6.15D-08    CP:  1.03D+00  5.29D-01  4.24D-01  7.50D-01  7.86D-01
                    CP:  6.92D-01  6.99D-01  8.05D-01  7.99D-01  7.96D-01
                    CP:  7.95D-01
 E= -1922.59193761977     Delta-E=       -0.000000001624 Rises=F Damp=F
 DIIS: error= 2.98D-07 at cycle  12 NSaved=  12.
 NSaved=12 IEnMin=12 EnMin= -1922.59193761977     IErMin=12 ErrMin= 2.98D-07
 ErrMax= 2.98D-07  0.00D+00 EMaxC= 1.00D-01 BMatC= 3.22D-10 BMatP= 1.82D-09
 IDIUse=1 WtCom= 1.00D+00 WtEn= 0.00D+00
 Coeff-Com:  0.559D-06 0.613D-05-0.410D-04-0.148D-03-0.429D-03-0.760D-03
 Coeff-Com: -0.187D-02-0.108D-02 0.119D-01 0.849D-01 0.379D+00 0.529D+00
 Coeff:      0.559D-06 0.613D-05-0.410D-04-0.148D-03-0.429D-03-0.760D-03
 Coeff:     -0.187D-02-0.108D-02 0.119D-01 0.849D-01 0.379D+00 0.529D+00
 Gap=     0.154 Goal=   None    Shift=    0.000
 RMSDP=5.02D-08 MaxDP=4.26D-06 DE=-1.62D-09 OVMax= 4.30D-06

 Cycle  13  Pass 1  IDiag  1:
 RMSU=  2.87D-08    CP:  1.03D+00  5.29D-01  4.24D-01  7.50D-01  7.86D-01
                    CP:  6.92D-01  6.99D-01  8.04D-01  8.07D-01  7.82D-01
                    CP:  8.59D-01  6.73D-01
 E= -1922.59193762008     Delta-E=       -0.000000000304 Rises=F Damp=F
 DIIS: error= 1.62D-07 at cycle  13 NSaved=  13.
 NSaved=13 IEnMin=13 EnMin= -1922.59193762008     IErMin=13 ErrMin= 1.62D-07
 ErrMax= 1.62D-07  0.00D+00 EMaxC= 1.00D-01 BMatC= 5.20D-11 BMatP= 3.22D-10
 IDIUse=1 WtCom= 1.00D+00 WtEn= 0.00D+00
 Coeff-Com:  0.574D-07 0.408D-05-0.538D-05-0.290D-04-0.174D-03-0.381D-03
 Coeff-Com: -0.122D-02-0.350D-02-0.550D-02 0.107D-01 0.116D+00 0.318D+00
 Coeff-Com:  0.566D+00
 Coeff:      0.574D-07 0.408D-05-0.538D-05-0.290D-04-0.174D-03-0.381D-03
 Coeff:     -0.122D-02-0.350D-02-0.550D-02 0.107D-01 0.116D+00 0.318D+00
 Coeff:      0.566D+00
 Gap=     0.154 Goal=   None    Shift=    0.000
 RMSDP=1.98D-08 MaxDP=2.61D-06 DE=-3.04D-10 OVMax= 1.94D-06

 Cycle  14  Pass 1  IDiag  1:
 RMSU=  9.88D-09    CP:  1.03D+00  5.29D-01  4.24D-01  7.50D-01  7.86D-01
                    CP:  6.92D-01  6.99D-01  8.05D-01  8.05D-01  7.95D-01
                    CP:  8.63D-01  8.03D-01  6.98D-01
 E= -1922.59193762004     Delta-E=        0.000000000042 Rises=F Damp=F
 DIIS: error= 3.87D-08 at cycle  14 NSaved=  14.
 NSaved=14 IEnMin=13 EnMin= -1922.59193762008     IErMin=14 ErrMin= 3.87D-08
 ErrMax= 3.87D-08  0.00D+00 EMaxC= 1.00D-01 BMatC= 5.47D-12 BMatP= 5.20D-11
 IDIUse=1 WtCom= 1.00D+00 WtEn= 0.00D+00
 Coeff-Com: -0.626D-07 0.120D-05 0.343D-05 0.742D-05-0.329D-04-0.861D-04
 Coeff-Com: -0.411D-03-0.177D-02-0.500D-02-0.705D-02 0.813D-02 0.931D-01
 Coeff-Com:  0.303D+00 0.610D+00
 Coeff:     -0.626D-07 0.120D-05 0.343D-05 0.742D-05-0.329D-04-0.861D-04
 Coeff:     -0.411D-03-0.177D-02-0.500D-02-0.705D-02 0.813D-02 0.931D-01
 Coeff:      0.303D+00 0.610D+00
 Gap=     0.154 Goal=   None    Shift=    0.000
 RMSDP=7.37D-09 MaxDP=7.98D-07 DE= 4.23D-11 OVMax= 8.48D-07

 Error on total polarization charges =  0.04134
 SCF Done:  E(RB3LYP) =  -1922.59193762     A.U. after   14 cycles
            NFock= 14  Conv=0.74D-08     -V/T= 2.0037
 KE= 1.915468466734D+03 PE=-1.043715365612D+04 EE= 3.638596397936D+03
 SMD-CDS (non-electrostatic) energy       (kcal/mol) =      -7.58
 (included in total energy above)
 Leave Link  502 at Tue Jun 11 19:55:32 2024, MaxMem=  8589934592 cpu:           16777.9 elap:             528.6
 (Enter /opt/packages/gaussian/g16RevC.01/g16/l601.exe)
 Copying SCF densities to generalized density rwf, IOpCl= 0 IROHF=0.

 **********************************************************************

            Population analysis using the SCF Density.

 **********************************************************************

 Alpha  occ. eigenvalues --  -89.07041 -89.07039 -19.13777 -19.13558 -19.13500
 Alpha  occ. eigenvalues --  -19.13334 -14.37099 -10.22577 -10.22345 -10.22266
 Alpha  occ. eigenvalues --  -10.22153 -10.20697 -10.20635 -10.20398 -10.20303
 Alpha  occ. eigenvalues --  -10.19841 -10.19785 -10.19356 -10.19353 -10.18816
 Alpha  occ. eigenvalues --  -10.18798 -10.18753 -10.18742 -10.18697 -10.18661
 Alpha  occ. eigenvalues --  -10.18661 -10.18625  -8.11740  -8.11710  -6.08145
 Alpha  occ. eigenvalues --   -6.08116  -6.07896  -6.07884  -6.07877  -6.07839
 Alpha  occ. eigenvalues --   -1.15567  -1.14259  -1.03779  -1.03382  -0.94484
 Alpha  occ. eigenvalues --   -0.90911  -0.89022  -0.85233  -0.84390  -0.81404
 Alpha  occ. eigenvalues --   -0.78349  -0.77363  -0.76807  -0.74850  -0.73622
 Alpha  occ. eigenvalues --   -0.69917  -0.68946  -0.64843  -0.64260  -0.62880
 Alpha  occ. eigenvalues --   -0.62431  -0.60545  -0.59076  -0.56699  -0.54675
 Alpha  occ. eigenvalues --   -0.53988  -0.52842  -0.52236  -0.52039  -0.51026
 Alpha  occ. eigenvalues --   -0.50695  -0.48082  -0.47598  -0.47185  -0.46937
 Alpha  occ. eigenvalues --   -0.46117  -0.45327  -0.44745  -0.44292  -0.43465
 Alpha  occ. eigenvalues --   -0.42943  -0.42742  -0.41650  -0.40962  -0.40334
 Alpha  occ. eigenvalues --   -0.39962  -0.39344  -0.38635  -0.37090  -0.36788
 Alpha  occ. eigenvalues --   -0.36288  -0.35889  -0.35633  -0.35577  -0.34972
 Alpha  occ. eigenvalues --   -0.34562  -0.33838  -0.33660  -0.33294  -0.32705
 Alpha  occ. eigenvalues --   -0.30436  -0.30176  -0.29950  -0.27083  -0.26700
 Alpha  occ. eigenvalues --   -0.23955  -0.23620
 Alpha virt. eigenvalues --   -0.08242  -0.06728  -0.04832  -0.03892  -0.00616
 Alpha virt. eigenvalues --    0.00322   0.03159   0.03952   0.04123   0.04984
 Alpha virt. eigenvalues --    0.05315   0.05504   0.06276   0.06490   0.07053
 Alpha virt. eigenvalues --    0.07189   0.07921   0.08310   0.09400   0.09784
 Alpha virt. eigenvalues --    0.10509   0.10595   0.11115   0.11884   0.12321
 Alpha virt. eigenvalues --    0.12669   0.13366   0.13580   0.13805   0.14566
 Alpha virt. eigenvalues --    0.15336   0.15557   0.15992   0.16548   0.17417
 Alpha virt. eigenvalues --    0.17833   0.18338   0.18647   0.19821   0.20103
 Alpha virt. eigenvalues --    0.20182   0.20481   0.21380   0.21456   0.21787
 Alpha virt. eigenvalues --    0.22050   0.22506   0.22852   0.23184   0.23826
 Alpha virt. eigenvalues --    0.23944   0.24430   0.25607   0.26093   0.26229
 Alpha virt. eigenvalues --    0.26364   0.26757   0.27351   0.27538   0.27637
 Alpha virt. eigenvalues --    0.27699   0.28312   0.28699   0.28924   0.29374
 Alpha virt. eigenvalues --    0.30186   0.30722   0.31402   0.31526   0.31936
 Alpha virt. eigenvalues --    0.32560   0.32816   0.33572   0.33991   0.34042
 Alpha virt. eigenvalues --    0.34421   0.34669   0.35216   0.35368   0.35770
 Alpha virt. eigenvalues --    0.36187   0.36569   0.36750   0.37085   0.37955
 Alpha virt. eigenvalues --    0.38114   0.38827   0.39004   0.39211   0.39588
 Alpha virt. eigenvalues --    0.40010   0.40439   0.40682   0.41067   0.41638
 Alpha virt. eigenvalues --    0.41908   0.42050   0.42308   0.42528   0.42754
 Alpha virt. eigenvalues --    0.43163   0.43639   0.43884   0.44372   0.45082
 Alpha virt. eigenvalues --    0.45431   0.45735   0.46635   0.46817   0.47154
 Alpha virt. eigenvalues --    0.47252   0.47875   0.47938   0.48048   0.49574
 Alpha virt. eigenvalues --    0.49717   0.49766   0.50549   0.50958   0.51269
 Alpha virt. eigenvalues --    0.51510   0.51918   0.52867   0.53308   0.53601
 Alpha virt. eigenvalues --    0.53918   0.55198   0.56009   0.56336   0.56444
 Alpha virt. eigenvalues --    0.56774   0.57038   0.57998   0.59213   0.59488
 Alpha virt. eigenvalues --    0.59536   0.59947   0.60174   0.62263   0.62524
 Alpha virt. eigenvalues --    0.62709   0.63770   0.63975   0.64283   0.64522
 Alpha virt. eigenvalues --    0.65475   0.65826   0.66473   0.67218   0.67358
 Alpha virt. eigenvalues --    0.67684   0.67907   0.68448   0.68546   0.68892
 Alpha virt. eigenvalues --    0.69366   0.69747   0.69924   0.70355   0.70625
 Alpha virt. eigenvalues --    0.71106   0.72055   0.72821   0.73266   0.73749
 Alpha virt. eigenvalues --    0.74038   0.74608   0.74957   0.75344   0.75680
 Alpha virt. eigenvalues --    0.76381   0.76799   0.77019   0.77363   0.77807
 Alpha virt. eigenvalues --    0.78067   0.78598   0.80797   0.80975   0.81224
 Alpha virt. eigenvalues --    0.81820   0.82225   0.82363   0.83139   0.83927
 Alpha virt. eigenvalues --    0.84196   0.84412   0.84942   0.85177   0.86209
 Alpha virt. eigenvalues --    0.86622   0.86895   0.87282   0.87663   0.88091
 Alpha virt. eigenvalues --    0.88565   0.89273   0.89880   0.90338   0.90668
 Alpha virt. eigenvalues --    0.91640   0.91765   0.92408   0.93337   0.93713
 Alpha virt. eigenvalues --    0.93886   0.94592   0.95776   0.96303   0.97234
 Alpha virt. eigenvalues --    0.97656   0.98063   0.98327   0.98918   0.99048
 Alpha virt. eigenvalues --    1.00283   1.01054   1.02003   1.02468   1.03314
 Alpha virt. eigenvalues --    1.04373   1.04542   1.04894   1.05389   1.05961
 Alpha virt. eigenvalues --    1.06742   1.06923   1.07707   1.07781   1.08657
 Alpha virt. eigenvalues --    1.09316   1.09761   1.10580   1.11214   1.11506
 Alpha virt. eigenvalues --    1.12086   1.13134   1.13509   1.14281   1.14936
 Alpha virt. eigenvalues --    1.15601   1.16516   1.17017   1.17545   1.18026
 Alpha virt. eigenvalues --    1.18944   1.19216   1.20524   1.20851   1.21444
 Alpha virt. eigenvalues --    1.21848   1.21949   1.23127   1.23601   1.23883
 Alpha virt. eigenvalues --    1.24508   1.25030   1.25767   1.26309   1.26554
 Alpha virt. eigenvalues --    1.26847   1.27798   1.28083   1.28957   1.29133
 Alpha virt. eigenvalues --    1.29503   1.29690   1.29888   1.30166   1.31067
 Alpha virt. eigenvalues --    1.31637   1.32148   1.32667   1.33023   1.33888
 Alpha virt. eigenvalues --    1.34094   1.34570   1.35469   1.36046   1.36170
 Alpha virt. eigenvalues --    1.36607   1.37887   1.38129   1.38932   1.39571
 Alpha virt. eigenvalues --    1.40120   1.40624   1.41099   1.41775   1.41998
 Alpha virt. eigenvalues --    1.42713   1.43363   1.43544   1.44075   1.45783
 Alpha virt. eigenvalues --    1.45832   1.46154   1.46415   1.46943   1.47439
 Alpha virt. eigenvalues --    1.48127   1.48530   1.49276   1.49485   1.50150
 Alpha virt. eigenvalues --    1.50952   1.51289   1.51614   1.52465   1.52889
 Alpha virt. eigenvalues --    1.54274   1.55100   1.55406   1.55893   1.56250
 Alpha virt. eigenvalues --    1.57016   1.58598   1.58671   1.59794   1.59874
 Alpha virt. eigenvalues --    1.60460   1.60697   1.61637   1.62140   1.62883
 Alpha virt. eigenvalues --    1.63130   1.63232   1.63750   1.64733   1.66619
 Alpha virt. eigenvalues --    1.66735   1.67011   1.67782   1.68115   1.68374
 Alpha virt. eigenvalues --    1.69651   1.69875   1.70517   1.70659   1.71582
 Alpha virt. eigenvalues --    1.71764   1.72668   1.73485   1.74040   1.74091
 Alpha virt. eigenvalues --    1.75292   1.75363   1.76482   1.76518   1.78088
 Alpha virt. eigenvalues --    1.78374   1.78909   1.80168   1.81385   1.81627
 Alpha virt. eigenvalues --    1.82170   1.83275   1.84405   1.85426   1.86394
 Alpha virt. eigenvalues --    1.87345   1.88798   1.89760   1.90140   1.90493
 Alpha virt. eigenvalues --    1.91953   1.92624   1.93118   1.94158   1.95246
 Alpha virt. eigenvalues --    1.95881   1.96545   1.97732   1.98128   1.99475
 Alpha virt. eigenvalues --    1.99961   2.00683   2.01150   2.01962   2.02324
 Alpha virt. eigenvalues --    2.02794   2.03747   2.04170   2.04467   2.04994
 Alpha virt. eigenvalues --    2.05734   2.06847   2.07470   2.08361   2.08727
 Alpha virt. eigenvalues --    2.08822   2.09500   2.10331   2.11368   2.12225
 Alpha virt. eigenvalues --    2.12789   2.13957   2.15584   2.16666   2.18199
 Alpha virt. eigenvalues --    2.19048   2.19360   2.19942   2.20613   2.21608
 Alpha virt. eigenvalues --    2.22718   2.23938   2.24497   2.24866   2.25354
 Alpha virt. eigenvalues --    2.25903   2.26344   2.27896   2.28291   2.30037
 Alpha virt. eigenvalues --    2.30138   2.31869   2.32272   2.32521   2.33092
 Alpha virt. eigenvalues --    2.33719   2.34555   2.34958   2.35011   2.35833
 Alpha virt. eigenvalues --    2.36910   2.37324   2.38479   2.39922   2.40633
 Alpha virt. eigenvalues --    2.41068   2.41916   2.42382   2.42957   2.43940
 Alpha virt. eigenvalues --    2.45321   2.45635   2.46186   2.46655   2.48111
 Alpha virt. eigenvalues --    2.49688   2.50412   2.51473   2.52438   2.53412
 Alpha virt. eigenvalues --    2.54946   2.55950   2.58366   2.60090   2.61878
 Alpha virt. eigenvalues --    2.62433   2.63564   2.63925   2.65273   2.65922
 Alpha virt. eigenvalues --    2.67177   2.68344   2.68602   2.68911   2.69709
 Alpha virt. eigenvalues --    2.70293   2.70672   2.71337   2.71778   2.72293
 Alpha virt. eigenvalues --    2.72527   2.73049   2.73945   2.74539   2.74851
 Alpha virt. eigenvalues --    2.75549   2.76824   2.77258   2.77506   2.78342
 Alpha virt. eigenvalues --    2.80733   2.80865   2.81076   2.81509   2.81906
 Alpha virt. eigenvalues --    2.82405   2.83716   2.84113   2.85047   2.85835
 Alpha virt. eigenvalues --    2.86650   2.88006   2.88600   2.89159   2.89368
 Alpha virt. eigenvalues --    2.89825   2.89959   2.90144   2.90849   2.91521
 Alpha virt. eigenvalues --    2.91944   2.93437   2.93912   2.94998   2.95332
 Alpha virt. eigenvalues --    2.95776   2.96203   2.96586   2.97237   2.98190
 Alpha virt. eigenvalues --    2.99154   2.99555   3.00005   3.00317   3.00608
 Alpha virt. eigenvalues --    3.01208   3.01716   3.02073   3.02201   3.02792
 Alpha virt. eigenvalues --    3.02996   3.04208   3.04406   3.04677   3.05302
 Alpha virt. eigenvalues --    3.05907   3.06241   3.06566   3.07399   3.07650
 Alpha virt. eigenvalues --    3.08017   3.08375   3.08577   3.09498   3.09932
 Alpha virt. eigenvalues --    3.10300   3.10536   3.11938   3.12086   3.12760
 Alpha virt. eigenvalues --    3.13164   3.13622   3.13946   3.14389   3.15133
 Alpha virt. eigenvalues --    3.15594   3.16485   3.17427   3.17899   3.18428
 Alpha virt. eigenvalues --    3.18672   3.19300   3.19624   3.19697   3.20118
 Alpha virt. eigenvalues --    3.20523   3.21109   3.21452   3.21581   3.22745
 Alpha virt. eigenvalues --    3.22885   3.23628   3.24225   3.24490   3.25191
 Alpha virt. eigenvalues --    3.25892   3.26420   3.26774   3.27874   3.28450
 Alpha virt. eigenvalues --    3.28997   3.29963   3.30752   3.31752   3.32067
 Alpha virt. eigenvalues --    3.32359   3.32889   3.33905   3.34265   3.34455
 Alpha virt. eigenvalues --    3.35879   3.36101   3.36475   3.36978   3.37673
 Alpha virt. eigenvalues --    3.38157   3.38770   3.39270   3.39394   3.40020
 Alpha virt. eigenvalues --    3.40472   3.40804   3.41190   3.41643   3.42320
 Alpha virt. eigenvalues --    3.43072   3.43918   3.44559   3.45012   3.45623
 Alpha virt. eigenvalues --    3.46707   3.46898   3.47305   3.47998   3.48614
 Alpha virt. eigenvalues --    3.49330   3.49848   3.50508   3.50776   3.51356
 Alpha virt. eigenvalues --    3.51689   3.52073   3.52298   3.52776   3.53046
 Alpha virt. eigenvalues --    3.54868   3.55175   3.55819   3.56422   3.56764
 Alpha virt. eigenvalues --    3.57722   3.58941   3.59713   3.60290   3.60587
 Alpha virt. eigenvalues --    3.60849   3.61626   3.62829   3.64088   3.64739
 Alpha virt. eigenvalues --    3.64992   3.65387   3.65671   3.66916   3.67277
 Alpha virt. eigenvalues --    3.67887   3.69790   3.70318   3.71614   3.72538
 Alpha virt. eigenvalues --    3.72711   3.73398   3.74207   3.74524   3.75127
 Alpha virt. eigenvalues --    3.75434   3.76361   3.76770   3.77737   3.78093
 Alpha virt. eigenvalues --    3.78802   3.79579   3.80377   3.80728   3.81982
 Alpha virt. eigenvalues --    3.82691   3.83720   3.84205   3.84558   3.84952
 Alpha virt. eigenvalues --    3.85262   3.85693   3.86981   3.87650   3.88598
 Alpha virt. eigenvalues --    3.88965   3.89411   3.90198   3.91391   3.92225
 Alpha virt. eigenvalues --    3.92485   3.94942   3.95317   3.96223   3.96604
 Alpha virt. eigenvalues --    3.96913   3.98392   3.98721   3.99055   3.99352
 Alpha virt. eigenvalues --    4.00816   4.01157   4.03090   4.04263   4.04585
 Alpha virt. eigenvalues --    4.05379   4.06166   4.07304   4.08482   4.08808
 Alpha virt. eigenvalues --    4.08896   4.09641   4.09927   4.10572   4.11626
 Alpha virt. eigenvalues --    4.11824   4.13315   4.13883   4.14534   4.15967
 Alpha virt. eigenvalues --    4.16628   4.16852   4.17472   4.17732   4.18829
 Alpha virt. eigenvalues --    4.19339   4.20287   4.20527   4.20942   4.21315
 Alpha virt. eigenvalues --    4.21732   4.22245   4.23469   4.24067   4.25112
 Alpha virt. eigenvalues --    4.26180   4.26725   4.26833   4.27211   4.28533
 Alpha virt. eigenvalues --    4.28776   4.29292   4.29689   4.30192   4.30393
 Alpha virt. eigenvalues --    4.33123   4.33984   4.34315   4.35227   4.35662
 Alpha virt. eigenvalues --    4.36586   4.37289   4.38566   4.38990   4.40147
 Alpha virt. eigenvalues --    4.40506   4.41348   4.42154   4.44031   4.44386
 Alpha virt. eigenvalues --    4.44852   4.45047   4.45345   4.46280   4.46797
 Alpha virt. eigenvalues --    4.48231   4.49826   4.50528   4.51109   4.52388
 Alpha virt. eigenvalues --    4.53327   4.54259   4.54709   4.55383   4.56215
 Alpha virt. eigenvalues --    4.61088   4.61665   4.62699   4.64425   4.64594
 Alpha virt. eigenvalues --    4.64770   4.65079   4.65524   4.65944   4.68655
 Alpha virt. eigenvalues --    4.69589   4.69821   4.70845   4.71698   4.71862
 Alpha virt. eigenvalues --    4.73514   4.74190   4.76610   4.76772   4.78737
 Alpha virt. eigenvalues --    4.79458   4.80116   4.81558   4.82557   4.83462
 Alpha virt. eigenvalues --    4.86838   4.87547   4.89709   4.92805   4.92980
 Alpha virt. eigenvalues --    4.93515   4.93748   4.95176   4.96681   4.97964
 Alpha virt. eigenvalues --    4.99228   4.99997   5.03546   5.03846   5.04250
 Alpha virt. eigenvalues --    5.06511   5.07238   5.09229   5.09731   5.11073
 Alpha virt. eigenvalues --    5.11961   5.12125   5.12162   5.12906   5.13620
 Alpha virt. eigenvalues --    5.14561   5.14666   5.15047   5.15439   5.15765
 Alpha virt. eigenvalues --    5.15874   5.16314   5.16904   5.18264   5.18496
 Alpha virt. eigenvalues --    5.19571   5.20458   5.21815   5.22168   5.23257
 Alpha virt. eigenvalues --    5.24742   5.26226   5.26892   5.27818   5.28702
 Alpha virt. eigenvalues --    5.29437   5.29704   5.30530   5.30915   5.31381
 Alpha virt. eigenvalues --    5.31931   5.32363   5.33011   5.34076   5.36440
 Alpha virt. eigenvalues --    5.36924   5.37382   5.38722   5.39974   5.41652
 Alpha virt. eigenvalues --    5.42996   5.48147   5.48674   5.48783   5.50391
 Alpha virt. eigenvalues --    5.52346   5.54211   5.56108   5.57161   5.58977
 Alpha virt. eigenvalues --    5.59253   5.59973   5.60919   5.61531   5.61791
 Alpha virt. eigenvalues --    5.62097   5.62551   5.63035   5.65842   5.67980
 Alpha virt. eigenvalues --    5.69308   5.71902   5.73288   5.78392   5.80908
 Alpha virt. eigenvalues --    5.82581   5.86346   5.88536   5.89877   5.90291
 Alpha virt. eigenvalues --    5.97421   6.03281   6.05303   6.07212   6.09750
 Alpha virt. eigenvalues --    6.10574   6.28425   6.30325   6.31125   6.32805
 Alpha virt. eigenvalues --    6.33135   6.34678   6.38005   6.43794   6.44650
 Alpha virt. eigenvalues --    6.49007   6.51668   6.69000   6.70721   6.70945
 Alpha virt. eigenvalues --    6.71701   6.72680   6.74504   6.77061   6.77183
 Alpha virt. eigenvalues --    6.78320   6.79291   6.88902   6.92142   6.94346
 Alpha virt. eigenvalues --    6.95881   6.98739   7.00656   7.15942   7.18785
 Alpha virt. eigenvalues --    7.46833   7.51539   7.75650   7.76893   7.82843
 Alpha virt. eigenvalues --    7.88403   9.38328   9.43497   9.63253   9.66241
 Alpha virt. eigenvalues --   10.13844  10.16767  22.53730  22.55628  22.83759
 Alpha virt. eigenvalues --   22.88180  23.00917  23.01717  23.09205  23.11012
 Alpha virt. eigenvalues --   23.13540  23.14100  23.17711  23.17920  23.24136
 Alpha virt. eigenvalues --   23.24715  23.28652  23.30274  23.35753  23.41401
 Alpha virt. eigenvalues --   23.66786  23.72119  24.12737  24.24529  32.52081
 Alpha virt. eigenvalues --   43.77174  43.81139  44.01156  44.04974
          Condensed to atoms (all electrons):
               1          2          3          4          5          6
     1  C    4.921543   0.513459  -0.061608  -0.024775  -0.047812   0.459617
     2  C    0.513459   5.235126   0.432373  -0.084700  -0.069297  -0.018172
     3  C   -0.061608   0.432373   5.955976   0.151654  -0.063008  -0.053561
     4  C   -0.024775  -0.084700   0.151654   5.291484   0.428166  -0.045787
     5  C   -0.047812  -0.069297  -0.063008   0.428166   4.987653   0.545150
     6  C    0.459617  -0.018172  -0.053561  -0.045787   0.545150   4.887749
     7  H    0.414723  -0.029067   0.004930   0.000440   0.005047  -0.028868
     8  H   -0.023668   0.417947  -0.015781   0.004277  -0.000608   0.005614
     9  C    0.012506  -0.194298  -0.442066   0.227441   0.043377  -0.016835
    10  C   -0.002235   0.038675   0.171341   0.250151  -0.096656   0.010227
    11  H    0.005252  -0.000539   0.008743  -0.030218   0.408412  -0.024266
    12  H   -0.030875   0.005739   0.000415   0.004697  -0.028715   0.414948
    13  C    0.000356  -0.019333  -0.230888   0.122683   0.015658  -0.001486
    14  C   -0.003180   0.083496   0.359608  -0.304467  -0.012085   0.002309
    15  H    0.000202  -0.000455   0.011414  -0.040525  -0.001113  -0.000782
    16  C   -0.004573  -0.123798  -0.132345   0.023715  -0.001327  -0.001294
    17  C   -0.000402   0.021507   0.007467  -0.014025  -0.000689   0.000323
    18  C    0.003390  -0.001434   0.000015   0.013591   0.000904  -0.000652
    19  C    0.000033  -0.001739   0.005747   0.000119   0.000005  -0.000011
    20  C   -0.000094  -0.003991   0.011403   0.001463   0.000031  -0.000044
    21  C    0.002584  -0.017202  -0.000536  -0.004871  -0.000266   0.000088
    22  C    0.000015   0.001157  -0.002646  -0.000095  -0.000004   0.000008
    23  C   -0.000072  -0.000238   0.000850   0.000017  -0.000001   0.000001
    24  C    0.000508   0.002682   0.002876  -0.000146  -0.000062   0.000032
    25  H    0.000283  -0.004340  -0.002107   0.001863  -0.000058   0.000182
    26  H    0.000000   0.000014  -0.000026  -0.000001   0.000000   0.000000
    27  C    0.000031   0.000081  -0.000632  -0.000037   0.000001   0.000000
    28  H    0.000000   0.000003  -0.000003   0.000000   0.000000   0.000000
    29  H    0.000015   0.000058   0.000090   0.000020   0.000002  -0.000005
    30  H    0.000000   0.000000  -0.000001   0.000000   0.000000   0.000000
    31  S    0.000015   0.000291   0.020661  -0.004141  -0.000059  -0.000003
    32  O    0.000000   0.000302   0.005050  -0.001282  -0.000007   0.000000
    33  O    0.000000   0.000013  -0.001313   0.000758   0.000009   0.000000
    34  S   -0.000032   0.000723  -0.018118   0.003146   0.000004   0.000030
    35  O   -0.000768   0.010089  -0.009556   0.005756  -0.000701   0.000358
    36  O    0.000000   0.000009   0.000298   0.000007   0.000000   0.000000
    37  N   -0.000007   0.000547   0.003975  -0.001493  -0.000025   0.000003
    38  H    0.000000  -0.000028  -0.000200   0.000072   0.000001   0.000000
    39  H    0.000001  -0.000026   0.000008   0.000000   0.000000   0.000000
    40  H   -0.000003  -0.000070  -0.005257   0.012722  -0.000226   0.000016
               7          8          9         10         11         12
     1  C    0.414723  -0.023668   0.012506  -0.002235   0.005252  -0.030875
     2  C   -0.029067   0.417947  -0.194298   0.038675  -0.000539   0.005739
     3  C    0.004930  -0.015781  -0.442066   0.171341   0.008743   0.000415
     4  C    0.000440   0.004277   0.227441   0.250151  -0.030218   0.004697
     5  C    0.005047  -0.000608   0.043377  -0.096656   0.408412  -0.028715
     6  C   -0.028868   0.005614  -0.016835   0.010227  -0.024266   0.414948
     7  H    0.481626  -0.003153  -0.000304   0.000043  -0.000303  -0.002801
     8  H   -0.003153   0.472722  -0.015574   0.000068   0.000062  -0.000304
     9  C   -0.000304  -0.015574   7.455221  -0.273016  -0.000597   0.000124
    10  C    0.000043   0.000068  -0.273016   5.140978   0.000192  -0.000728
    11  H   -0.000303   0.000062  -0.000597   0.000192   0.482697  -0.003641
    12  H   -0.002801  -0.000304   0.000124  -0.000728  -0.003641   0.484115
    13  C    0.000005  -0.000194   0.168377   0.336748  -0.001157   0.000035
    14  C    0.000020   0.000772  -0.386487   0.207147   0.000233  -0.000004
    15  H   -0.000002   0.000017  -0.003286   0.423413   0.005733  -0.000047
    16  C    0.000092  -0.002024  -0.057824  -0.009410   0.000060  -0.000004
    17  C   -0.000041  -0.000025  -0.392142   0.005535   0.000000   0.000000
    18  C    0.000084  -0.003301  -0.125225  -0.002513  -0.000004  -0.000001
    19  C    0.000003   0.000343   0.022721   0.000131   0.000000   0.000000
    20  C    0.000022   0.002080   0.032458  -0.000171   0.000000   0.000000
    21  C    0.000057  -0.004625  -0.127360   0.001534   0.000003   0.000000
    22  C   -0.000005   0.000224  -0.012304  -0.000012   0.000000   0.000000
    23  C    0.000003  -0.000024  -0.001362  -0.000005   0.000000   0.000000
    24  C    0.000015   0.000346  -0.005024   0.000009   0.000000   0.000000
    25  H   -0.000008   0.000254  -0.002047   0.000388   0.000005  -0.000001
    26  H    0.000000   0.000007   0.000144   0.000000   0.000000   0.000000
    27  C   -0.000005   0.000190  -0.001221   0.000009   0.000000   0.000000
    28  H    0.000000   0.000007   0.000058   0.000000   0.000000   0.000000
    29  H    0.000001  -0.000010   0.000077  -0.000004   0.000000   0.000000
    30  H    0.000000  -0.000001  -0.000005   0.000000   0.000000   0.000000
    31  S    0.000000   0.000010  -0.022805   0.005656   0.000000   0.000000
    32  O    0.000000   0.000021  -0.047344   0.000907   0.000000   0.000000
    33  O    0.000000   0.000000   0.016250  -0.002807   0.000000   0.000000
    34  S   -0.000002  -0.000037  -0.003038  -0.002518  -0.000001   0.000000
    35  O   -0.000009   0.000293  -0.008306  -0.002895  -0.000006   0.000001
    36  O    0.000000   0.000003  -0.000597  -0.000002   0.000000   0.000000
    37  N    0.000000   0.000011  -0.034135   0.001259   0.000000   0.000000
    38  H    0.000000  -0.000001   0.003080  -0.000084   0.000000   0.000000
    39  H    0.000000  -0.000009  -0.000076   0.000000   0.000000   0.000000
    40  H    0.000000  -0.000004   0.015267  -0.040779  -0.000024   0.000000
              13         14         15         16         17         18
     1  C    0.000356  -0.003180   0.000202  -0.004573  -0.000402   0.003390
     2  C   -0.019333   0.083496  -0.000455  -0.123798   0.021507  -0.001434
     3  C   -0.230888   0.359608   0.011414  -0.132345   0.007467   0.000015
     4  C    0.122683  -0.304467  -0.040525   0.023715  -0.014025   0.013591
     5  C    0.015658  -0.012085  -0.001113  -0.001327  -0.000689   0.000904
     6  C   -0.001486   0.002309  -0.000782  -0.001294   0.000323  -0.000652
     7  H    0.000005   0.000020  -0.000002   0.000092  -0.000041   0.000084
     8  H   -0.000194   0.000772   0.000017  -0.002024  -0.000025  -0.003301
     9  C    0.168377  -0.386487  -0.003286  -0.057824  -0.392142  -0.125225
    10  C    0.336748   0.207147   0.423413  -0.009410   0.005535  -0.002513
    11  H   -0.001157   0.000233   0.005733   0.000060   0.000000  -0.000004
    12  H    0.000035  -0.000004  -0.000047  -0.000004   0.000000  -0.000001
    13  C    5.282104   0.025067  -0.037636   0.015749  -0.009408   0.004920
    14  C    0.025067   6.258105   0.012479  -0.338059   0.073097  -0.002304
    15  H   -0.037636   0.012479   0.481349   0.000218   0.000023  -0.000027
    16  C    0.015749  -0.338059   0.000218   7.396516  -0.314918  -0.455618
    17  C   -0.009408   0.073097   0.000023  -0.314918   6.270597   0.327714
    18  C    0.004920  -0.002304  -0.000027  -0.455618   0.327714   6.003597
    19  C   -0.000881  -0.009723   0.000000   0.146588   0.063222  -0.228104
    20  C    0.000423  -0.010923  -0.000001   0.212098  -0.295308   0.161210
    21  C   -0.002820   0.020106   0.000017  -0.187102   0.089466   0.423728
    22  C    0.000111   0.005064   0.000000  -0.255914   0.183718   0.160431
    23  C    0.000012  -0.000460   0.000000   0.044927  -0.012561  -0.062471
    24  C    0.000054  -0.000076   0.000000   0.014452  -0.003800  -0.061562
    25  H    0.000062   0.000007   0.000009  -0.015937   0.000633  -0.015987
    26  H    0.000000   0.000020   0.000000  -0.003797   0.012422   0.011727
    27  C   -0.000014   0.000283   0.000000  -0.017464   0.002654  -0.053716
    28  H    0.000000  -0.000001   0.000000  -0.000665   0.000269   0.008918
    29  H    0.000002  -0.000041   0.000000  -0.000353   0.000019   0.005093
    30  H    0.000000   0.000000   0.000000   0.000126  -0.000001   0.000435
    31  S   -0.053990   0.318622  -0.000141  -0.019848   0.001150  -0.013853
    32  O    0.004093  -0.022508   0.000008  -0.002889  -0.005896  -0.010174
    33  O    0.009229  -0.094302  -0.000087  -0.000322  -0.001018   0.000350
    34  S    0.007866  -0.000408  -0.000010  -0.004479   0.301611   0.021119
    35  O    0.008333  -0.010171  -0.000027  -0.036558  -0.040592   0.005753
    36  O    0.000060  -0.001003   0.000000   0.015300  -0.101712  -0.001018
    37  N    0.010309  -0.035105   0.000003  -0.062501  -0.015497   0.006208
    38  H   -0.000198   0.002507  -0.000001   0.002513   0.000998   0.000034
    39  H   -0.000008  -0.000248   0.000000   0.013660  -0.057934  -0.005388
    40  H    0.436384  -0.059692  -0.004723  -0.000499  -0.000128  -0.000013
              19         20         21         22         23         24
     1  C    0.000033  -0.000094   0.002584   0.000015  -0.000072   0.000508
     2  C   -0.001739  -0.003991  -0.017202   0.001157  -0.000238   0.002682
     3  C    0.005747   0.011403  -0.000536  -0.002646   0.000850   0.002876
     4  C    0.000119   0.001463  -0.004871  -0.000095   0.000017  -0.000146
     5  C    0.000005   0.000031  -0.000266  -0.000004  -0.000001  -0.000062
     6  C   -0.000011  -0.000044   0.000088   0.000008   0.000001   0.000032
     7  H    0.000003   0.000022   0.000057  -0.000005   0.000003   0.000015
     8  H    0.000343   0.002080  -0.004625   0.000224  -0.000024   0.000346
     9  C    0.022721   0.032458  -0.127360  -0.012304  -0.001362  -0.005024
    10  C    0.000131  -0.000171   0.001534  -0.000012  -0.000005   0.000009
    11  H    0.000000   0.000000   0.000003   0.000000   0.000000   0.000000
    12  H    0.000000   0.000000   0.000000   0.000000   0.000000   0.000000
    13  C   -0.000881   0.000423  -0.002820   0.000111   0.000012   0.000054
    14  C   -0.009723  -0.010923   0.020106   0.005064  -0.000460  -0.000076
    15  H    0.000000  -0.000001   0.000017   0.000000   0.000000   0.000000
    16  C    0.146588   0.212098  -0.187102  -0.255914   0.044927   0.014452
    17  C    0.063222  -0.295308   0.089466   0.183718  -0.012561  -0.003800
    18  C   -0.228104   0.161210   0.423728   0.160431  -0.062471  -0.061562
    19  C    5.267411   0.106969  -0.019774   0.341504   0.017191   0.000893
    20  C    0.106969   5.282005  -0.093094   0.267823   0.425724  -0.024077
    21  C   -0.019774  -0.093094   5.247226   0.038309  -0.071290   0.509742
    22  C    0.341504   0.267823   0.038309   5.139589  -0.098245  -0.003034
    23  C    0.017191   0.425724  -0.071290  -0.098245   4.993582  -0.045633
    24  C    0.000893  -0.024077   0.509742  -0.003034  -0.045633   4.925420
    25  H   -0.000269   0.004424   0.418091   0.000119  -0.000690  -0.024181
    26  H   -0.038680  -0.039522  -0.000400   0.424027  -0.001300   0.000179
    27  C   -0.002164  -0.047051  -0.016837   0.011515   0.542830   0.458100
    28  H   -0.001143  -0.030667  -0.000480   0.000215   0.408441   0.005252
    29  H    0.000006   0.000468  -0.029208   0.000042   0.005096   0.414801
    30  H    0.000032   0.004699   0.005769  -0.000720  -0.028891  -0.031046
    31  S    0.006561   0.002057   0.001075  -0.001995  -0.000038  -0.000053
    32  O    0.007603   0.004705   0.010592  -0.002614  -0.000658  -0.000782
    33  O    0.000064   0.000002   0.000013  -0.000003   0.000000  -0.000001
    34  S   -0.056103  -0.003718   0.000231   0.004169  -0.000080   0.000006
    35  O    0.002712  -0.001316   0.000277   0.000992  -0.000007   0.000000
    36  O    0.012803   0.000766   0.000014  -0.003490   0.000007   0.000000
    37  N    0.011658  -0.002149   0.000863   0.001580  -0.000038  -0.000018
    38  H   -0.000262   0.000157  -0.000035  -0.000350   0.000001   0.000000
    39  H    0.436579   0.012514  -0.000088  -0.039907  -0.000205   0.000000
    40  H   -0.000008   0.000000  -0.000032   0.000000   0.000000   0.000001
              25         26         27         28         29         30
     1  C    0.000283   0.000000   0.000031   0.000000   0.000015   0.000000
     2  C   -0.004340   0.000014   0.000081   0.000003   0.000058   0.000000
     3  C   -0.002107  -0.000026  -0.000632  -0.000003   0.000090  -0.000001
     4  C    0.001863  -0.000001  -0.000037   0.000000   0.000020   0.000000
     5  C   -0.000058   0.000000   0.000001   0.000000   0.000002   0.000000
     6  C    0.000182   0.000000   0.000000   0.000000  -0.000005   0.000000
     7  H   -0.000008   0.000000  -0.000005   0.000000   0.000001   0.000000
     8  H    0.000254   0.000007   0.000190   0.000007  -0.000010  -0.000001
     9  C   -0.002047   0.000144  -0.001221   0.000058   0.000077  -0.000005
    10  C    0.000388   0.000000   0.000009   0.000000  -0.000004   0.000000
    11  H    0.000005   0.000000   0.000000   0.000000   0.000000   0.000000
    12  H   -0.000001   0.000000   0.000000   0.000000   0.000000   0.000000
    13  C    0.000062   0.000000  -0.000014   0.000000   0.000002   0.000000
    14  C    0.000007   0.000020   0.000283  -0.000001  -0.000041   0.000000
    15  H    0.000009   0.000000   0.000000   0.000000   0.000000   0.000000
    16  C   -0.015937  -0.003797  -0.017464  -0.000665  -0.000353   0.000126
    17  C    0.000633   0.012422   0.002654   0.000269   0.000019  -0.000001
    18  C   -0.015987   0.011727  -0.053716   0.008918   0.005093   0.000435
    19  C   -0.000269  -0.038680  -0.002164  -0.001143   0.000006   0.000032
    20  C    0.004424  -0.039522  -0.047051  -0.030667   0.000468   0.004699
    21  C    0.418091  -0.000400  -0.016837  -0.000480  -0.029208   0.005769
    22  C    0.000119   0.424027   0.011515   0.000215   0.000042  -0.000720
    23  C   -0.000690  -0.001300   0.542830   0.408441   0.005096  -0.028891
    24  C   -0.024181   0.000179   0.458100   0.005252   0.414801  -0.031046
    25  H    0.473831   0.000018   0.005704   0.000063  -0.003199  -0.000305
    26  H    0.000018   0.481182  -0.000718   0.005774  -0.000002  -0.000046
    27  C    0.005704  -0.000718   4.891451  -0.024249  -0.029070   0.415215
    28  H    0.000063   0.005774  -0.024249   0.483015  -0.000304  -0.003664
    29  H   -0.003199  -0.000002  -0.029070  -0.000304   0.482026  -0.002820
    30  H   -0.000305  -0.000046   0.415215  -0.003664  -0.002820   0.484617
    31  S   -0.000008  -0.000008   0.000029   0.000000  -0.000001   0.000000
    32  O    0.000323  -0.000028   0.000357  -0.000005  -0.000010   0.000001
    33  O    0.000005   0.000000   0.000000   0.000000   0.000000   0.000000
    34  S    0.000021  -0.000098   0.000001   0.000000   0.000000   0.000000
    35  O    0.000020   0.000009   0.000000   0.000000   0.000000   0.000000
    36  O    0.000000  -0.000093   0.000000   0.000000   0.000000   0.000000
    37  N    0.000028   0.000016   0.000004   0.000000   0.000000   0.000000
    38  H    0.000000  -0.000006   0.000000   0.000000   0.000000   0.000000
    39  H   -0.000004  -0.004770   0.000010  -0.000025   0.000000   0.000000
    40  H   -0.000011   0.000000   0.000000   0.000000   0.000000   0.000000
              31         32         33         34         35         36
     1  C    0.000015   0.000000   0.000000  -0.000032  -0.000768   0.000000
     2  C    0.000291   0.000302   0.000013   0.000723   0.010089   0.000009
     3  C    0.020661   0.005050  -0.001313  -0.018118  -0.009556   0.000298
     4  C   -0.004141  -0.001282   0.000758   0.003146   0.005756   0.000007
     5  C   -0.000059  -0.000007   0.000009   0.000004  -0.000701   0.000000
     6  C   -0.000003   0.000000   0.000000   0.000030   0.000358   0.000000
     7  H    0.000000   0.000000   0.000000  -0.000002  -0.000009   0.000000
     8  H    0.000010   0.000021   0.000000  -0.000037   0.000293   0.000003
     9  C   -0.022805  -0.047344   0.016250  -0.003038  -0.008306  -0.000597
    10  C    0.005656   0.000907  -0.002807  -0.002518  -0.002895  -0.000002
    11  H    0.000000   0.000000   0.000000  -0.000001  -0.000006   0.000000
    12  H    0.000000   0.000000   0.000000   0.000000   0.000001   0.000000
    13  C   -0.053990   0.004093   0.009229   0.007866   0.008333   0.000060
    14  C    0.318622  -0.022508  -0.094302  -0.000408  -0.010171  -0.001003
    15  H   -0.000141   0.000008  -0.000087  -0.000010  -0.000027   0.000000
    16  C   -0.019848  -0.002889  -0.000322  -0.004479  -0.036558   0.015300
    17  C    0.001150  -0.005896  -0.001018   0.301611  -0.040592  -0.101712
    18  C   -0.013853  -0.010174   0.000350   0.021119   0.005753  -0.001018
    19  C    0.006561   0.007603   0.000064  -0.056103   0.002712   0.012803
    20  C    0.002057   0.004705   0.000002  -0.003718  -0.001316   0.000766
    21  C    0.001075   0.010592   0.000013   0.000231   0.000277   0.000014
    22  C   -0.001995  -0.002614  -0.000003   0.004169   0.000992  -0.003490
    23  C   -0.000038  -0.000658   0.000000  -0.000080  -0.000007   0.000007
    24  C   -0.000053  -0.000782  -0.000001   0.000006   0.000000   0.000000
    25  H   -0.000008   0.000323   0.000005   0.000021   0.000020   0.000000
    26  H   -0.000008  -0.000028   0.000000  -0.000098   0.000009  -0.000093
    27  C    0.000029   0.000357   0.000000   0.000001   0.000000   0.000000
    28  H    0.000000  -0.000005   0.000000   0.000000   0.000000   0.000000
    29  H   -0.000001  -0.000010   0.000000   0.000000   0.000000   0.000000
    30  H    0.000000   0.000001   0.000000   0.000000   0.000000   0.000000
    31  S   13.456494   0.599906   0.629283   0.002823  -0.003017  -0.000150
    32  O    0.599906   8.015278  -0.058868  -0.004741  -0.000132  -0.000002
    33  O    0.629283  -0.058868   7.994314   0.000260  -0.000003  -0.000110
    34  S    0.002823  -0.004741   0.000260  13.431306   0.613504   0.632396
    35  O   -0.003017  -0.000132  -0.000003   0.613504   8.001104  -0.055489
    36  O   -0.000150  -0.000002  -0.000110   0.632396  -0.055489   7.998570
    37  N    0.282555  -0.060210  -0.056502   0.269449  -0.058040  -0.056775
    38  H   -0.010737   0.001131   0.001549  -0.009034   0.002538   0.004865
    39  H    0.000241   0.000202   0.000002  -0.004696   0.000331   0.019165
    40  H   -0.006228   0.000465   0.020624   0.000285   0.000204   0.000002
              37         38         39         40
     1  C   -0.000007   0.000000   0.000001  -0.000003
     2  C    0.000547  -0.000028  -0.000026  -0.000070
     3  C    0.003975  -0.000200   0.000008  -0.005257
     4  C   -0.001493   0.000072   0.000000   0.012722
     5  C   -0.000025   0.000001   0.000000  -0.000226
     6  C    0.000003   0.000000   0.000000   0.000016
     7  H    0.000000   0.000000   0.000000   0.000000
     8  H    0.000011  -0.000001  -0.000009  -0.000004
     9  C   -0.034135   0.003080  -0.000076   0.015267
    10  C    0.001259  -0.000084   0.000000  -0.040779
    11  H    0.000000   0.000000   0.000000  -0.000024
    12  H    0.000000   0.000000   0.000000   0.000000
    13  C    0.010309  -0.000198  -0.000008   0.436384
    14  C   -0.035105   0.002507  -0.000248  -0.059692
    15  H    0.000003  -0.000001   0.000000  -0.004723
    16  C   -0.062501   0.002513   0.013660  -0.000499
    17  C   -0.015497   0.000998  -0.057934  -0.000128
    18  C    0.006208   0.000034  -0.005388  -0.000013
    19  C    0.011658  -0.000262   0.436579  -0.000008
    20  C   -0.002149   0.000157   0.012514   0.000000
    21  C    0.000863  -0.000035  -0.000088  -0.000032
    22  C    0.001580  -0.000350  -0.039907   0.000000
    23  C   -0.000038   0.000001  -0.000205   0.000000
    24  C   -0.000018   0.000000   0.000000   0.000001
    25  H    0.000028   0.000000  -0.000004  -0.000011
    26  H    0.000016  -0.000006  -0.004770   0.000000
    27  C    0.000004   0.000000   0.000010   0.000000
    28  H    0.000000   0.000000  -0.000025   0.000000
    29  H    0.000000   0.000000   0.000000   0.000000
    30  H    0.000000   0.000000   0.000000   0.000000
    31  S    0.282555  -0.010737   0.000241  -0.006228
    32  O   -0.060210   0.001131   0.000202   0.000465
    33  O   -0.056502   0.001549   0.000002   0.020624
    34  S    0.269449  -0.009034  -0.004696   0.000285
    35  O   -0.058040   0.002538   0.000331   0.000204
    36  O   -0.056775   0.004865   0.019165   0.000002
    37  N    6.683222   0.336192  -0.000041   0.000253
    38  H    0.336192   0.481857   0.000118  -0.000017
    39  H   -0.000041   0.000118   0.468445   0.000000
    40  H    0.000253  -0.000017   0.000000   0.469298
 Mulliken charges:
               1
     1  C   -0.134429
     2  C   -0.195564
     3  C   -0.115243
     4  C    0.012325
     5  C   -0.111701
     6  C   -0.134887
     7  H    0.157460
     8  H    0.164077
     9  C    0.176176
    10  C   -0.160576
    11  H    0.149364
    12  H    0.157048
    13  C   -0.090627
    14  C   -0.077691
    15  H    0.153980
    16  C    0.163509
    17  C   -0.096327
    18  C   -0.115858
    19  C   -0.092038
    20  C    0.018624
    21  C   -0.193767
    22  C   -0.159277
    23  C   -0.114411
    24  C   -0.135874
    25  H    0.162820
    26  H    0.153956
    27  C   -0.135286
    28  H    0.149192
    29  H    0.157211
    30  H    0.156606
    31  S    0.809646
    32  O   -0.432793
    33  O   -0.457387
    34  S    0.818161
    35  O   -0.424681
    36  O   -0.463823
    37  N   -0.225598
    38  H    0.183340
    39  H    0.162150
    40  H    0.162191
 Sum of Mulliken charges =   0.00000
 Mulliken charges with hydrogens summed into heavy atoms:
               1
     1  C    0.023031
     2  C   -0.031487
     3  C   -0.115243
     4  C    0.012325
     5  C    0.037663
     6  C    0.022162
     9  C    0.176176
    10  C   -0.006596
    13  C    0.071564
    14  C   -0.077691
    16  C    0.163509
    17  C   -0.096327
    18  C   -0.115858
    19  C    0.070112
    20  C    0.018624
    21  C   -0.030947
    22  C   -0.005321
    23  C    0.034781
    24  C    0.021338
    27  C    0.021320
    31  S    0.809646
    32  O   -0.432793
    33  O   -0.457387
    34  S    0.818161
    35  O   -0.424681
    36  O   -0.463823
    37  N   -0.042257
 Electronic spatial extent (au):  <R**2>=          16710.2941
 Charge=              0.0000 electrons
 Dipole moment (field-independent basis, Debye):
    X=             -3.4484    Y=              6.1864    Z=              1.3337  Tot=              7.2071
 Quadrupole moment (field-independent basis, Debye-Ang):
   XX=           -137.9509   YY=           -119.2632   ZZ=           -176.3190
   XY=            -12.3325   XZ=            -18.2829   YZ=             -0.1673
 Traceless Quadrupole moment (field-independent basis, Debye-Ang):
   XX=              6.5602   YY=             25.2478   ZZ=            -31.8080
   XY=            -12.3325   XZ=            -18.2829   YZ=             -0.1673
 Octapole moment (field-independent basis, Debye-Ang**2):
  XXX=            797.1322  YYY=          -1121.8494  ZZZ=           -205.5078  XYY=            262.7579
  XXY=           -375.9072  XXZ=              8.7720  XZZ=            297.0264  YZZ=           -439.1955
  YYZ=            -91.1145  XYZ=            -44.1169
 Hexadecapole moment (field-independent basis, Debye-Ang**3):
 XXXX=          -6710.4848 YYYY=         -10734.8128 ZZZZ=          -2876.0628 XXXY=           2442.9784
 XXXZ=            534.5297 YYYX=           2402.4670 YYYZ=           -809.0177 ZZZX=            935.8559
 ZZZY=           -313.6419 XXYY=          -3001.6004 XXZZ=          -1513.9424 YYZZ=          -2258.3319
 XXYZ=             66.0184 YYXZ=            176.3518 ZZXY=            708.2805
 N-N= 2.960496853829D+03 E-N=-1.043715363364D+04  KE= 1.915468466734D+03
 No NMR shielding tensors so no spin-rotation constants.
 Leave Link  601 at Tue Jun 11 19:55:33 2024, MaxMem=  8589934592 cpu:              11.2 elap:               0.5
 (Enter /opt/packages/gaussian/g16RevC.01/g16/l9999.exe)
 Unable to Open any file for archive entry.
 1\1\GINC-R260\SP\RB3LYP\def2TZVPP\C20H13N1O4S2\BIM2\11-Jun-2024\0\\#p 
 b3lyp def2tzvpp scf=maxcycle=128 nosymm scrf=(smd,solvent=propylethano
 ate) empiricaldispersion=gd3bj\\Title Card Required\\0,1\C,0,-2.55508,
 6.382831,-1.481148\C,0,-2.581315,5.184419,-0.811576\C,0,-1.36964,4.532
 971,-0.439527\C,0,-0.129031,5.137978,-0.804779\C,0,-0.137415,6.384718,
 -1.489617\C,0,-1.321707,6.995929,-1.816327\H,0,-3.491916,6.865793,-1.7
 62722\H,0,-3.538085,4.720527,-0.570904\C,0,-1.358675,3.284032,0.262797
 \C,0,1.094287,4.481847,-0.503656\H,0,0.819246,6.838384,-1.755582\H,0,-
 1.318958,7.950307,-2.345103\C,0,1.096843,3.261958,0.119081\C,0,-0.1350
 54,2.680064,0.499731\H,0,2.033479,4.956373,-0.793022\C,0,-2.64864,2.63
 9253,0.659944\C,0,-3.048974,1.431199,0.115539\C,0,-3.487621,3.249364,1
 .647643\C,0,-4.267307,0.800949,0.460064\C,0,-4.729827,2.630797,1.98287
 1\C,0,-3.113669,4.443032,2.329705\C,0,-5.100753,1.407742,1.362785\C,0,
 -5.571081,3.241133,2.954096\C,0,-3.944093,5.001291,3.270115\H,0,-2.153
 735,4.910875,2.109299\H,0,-6.053586,0.947583,1.630296\C,0,-5.190328,4.
 401147,3.58052\H,0,-6.521215,2.760546,3.194758\H,0,-3.640244,5.912504,
 3.787435\H,0,-5.840142,4.860507,4.326972\S,0,-0.058378,1.089785,1.2498
 76\O,0,-0.920606,1.032425,2.379848\O,0,1.295132,0.680691,1.399186\S,0,
 -1.966509,0.560026,-0.972879\O,0,-1.484627,1.444081,-1.971506\O,0,-2.5
 51527,-0.684275,-1.336663\N,0,-0.686292,0.139136,0.018002\H,0,-0.69618
 4,-0.855088,0.267304\H,0,-4.524743,-0.150633,-0.003957\H,0,2.024127,2.
 732335,0.334453\\Version=ES64L-G16RevC.01\HF=-1922.5919376\RMSD=7.374e
 -09\Dipole=-1.3566899,2.4339229,0.5247229\Quadrupole=4.8773284,18.7711
 202,-23.6484487,-9.1689308,-13.5928921,-0.1243931\PG=C01 [X(C20H13N1O4
 S2)]\\@
 The archive entry for this job was punched.


 ABOVE ALL I AM AN OPTIMIST FOR NUMBER THEORY,
 AND I HOLD THE HOPE THAT WE MAY NOT BE FAR FROM
 A TIME WHEN IRREFUTABLE ARITHMETIC WILL CELEBRATE
 ITS TRIUMPHS IN PHYSICS AND CHEMISTRY.
   -- HERMANN MINKOWSKI, 1905
 Job cpu time:       0 days  4 hours 42 minutes 44.1 seconds.
 Elapsed time:       0 days  0 hours  8 minutes 54.8 seconds.
 File lengths (MBytes):  RWF=    741 Int=      0 D2E=      0 Chk=     65 Scr=      1
 Normal termination of Gaussian 16 at Tue Jun 11 19:55:33 2024.
