 Entering Gaussian System, Link 0=g16
 Initial command:
 /opt/packages/gaussian/g16RevC.01/g16/l1.exe "/local/Gau-84493.inp" -scrdir="/local/"
 Entering Link 1 = /opt/packages/gaussian/g16RevC.01/g16/l1.exe PID=     84494.
  
 Copyright (c) 1988-2019, Gaussian, Inc.  All Rights Reserved.
  
 This is part of the Gaussian(R) 16 program.  It is based on
 the Gaussian(R) 09 system (copyright 2009, Gaussian, Inc.),
 the Gaussian(R) 03 system (copyright 2003, Gaussian, Inc.),
 the Gaussian(R) 98 system (copyright 1998, Gaussian, Inc.),
 the Gaussian(R) 94 system (copyright 1995, Gaussian, Inc.),
 the Gaussian 92(TM) system (copyright 1992, Gaussian, Inc.),
 the Gaussian 90(TM) system (copyright 1990, Gaussian, Inc.),
 the Gaussian 88(TM) system (copyright 1988, Gaussian, Inc.),
 the Gaussian 86(TM) system (copyright 1986, Carnegie Mellon
 University), and the Gaussian 82(TM) system (copyright 1983,
 Carnegie Mellon University). Gaussian is a federally registered
 trademark of Gaussian, Inc.
  
 This software contains proprietary and confidential information,
 including trade secrets, belonging to Gaussian, Inc.
  
 This software is provided under written license and may be
 used, copied, transmitted, or stored only in accord with that
 written license.
  
 The following legend is applicable only to US Government
 contracts under FAR:
  
                    RESTRICTED RIGHTS LEGEND
  
 Use, reproduction and disclosure by the US Government is
 subject to restrictions as set forth in subparagraphs (a)
 and (c) of the Commercial Computer Software - Restricted
 Rights clause in FAR 52.227-19.
  
 Gaussian, Inc.
 340 Quinnipiac St., Bldg. 40, Wallingford CT 06492
  
  
 ---------------------------------------------------------------
 Warning -- This program may not be used in any manner that
 competes with the business of Gaussian, Inc. or will provide
 assistance to any competitor of Gaussian, Inc.  The licensee
 of this program is prohibited from giving any competitor of
 Gaussian, Inc. access to this program.  By using this program,
 the user acknowledges that Gaussian, Inc. is engaged in the
 business of creating and licensing software in the field of
 computational chemistry and represents and warrants to the
 licensee that it is not a competitor of Gaussian, Inc. and that
 it will not use this program in any manner prohibited above.
 ---------------------------------------------------------------
  

 Cite this work as:
 Gaussian 16, Revision C.01,
 M. J. Frisch, G. W. Trucks, H. B. Schlegel, G. E. Scuseria, 
 M. A. Robb, J. R. Cheeseman, G. Scalmani, V. Barone, 
 G. A. Petersson, H. Nakatsuji, X. Li, M. Caricato, A. V. Marenich, 
 J. Bloino, B. G. Janesko, R. Gomperts, B. Mennucci, H. P. Hratchian, 
 J. V. Ortiz, A. F. Izmaylov, J. L. Sonnenberg, D. Williams-Young, 
 F. Ding, F. Lipparini, F. Egidi, J. Goings, B. Peng, A. Petrone, 
 T. Henderson, D. Ranasinghe, V. G. Zakrzewski, J. Gao, N. Rega, 
 G. Zheng, W. Liang, M. Hada, M. Ehara, K. Toyota, R. Fukuda, 
 J. Hasegawa, M. Ishida, T. Nakajima, Y. Honda, O. Kitao, H. Nakai, 
 T. Vreven, K. Throssell, J. A. Montgomery, Jr., J. E. Peralta, 
 F. Ogliaro, M. J. Bearpark, J. J. Heyd, E. N. Brothers, K. N. Kudin, 
 V. N. Staroverov, T. A. Keith, R. Kobayashi, J. Normand, 
 K. Raghavachari, A. P. Rendell, J. C. Burant, S. S. Iyengar, 
 J. Tomasi, M. Cossi, J. M. Millam, M. Klene, C. Adamo, R. Cammi, 
 J. W. Ochterski, R. L. Martin, K. Morokuma, O. Farkas, 
 J. B. Foresman, and D. J. Fox, Gaussian, Inc., Wallingford CT, 2019.
 
 ******************************************
 Gaussian 16:  ES64L-G16RevC.01  3-Jul-2019
                11-Jun-2024 
 ******************************************
 %nprocshared=32
 Will use up to   32 processors via shared memory.
 %mem=64GB
 ----------------------------------------------------------------------
 #p b3lyp def2tzvpp scf=maxcycle=128 nosymm scrf=(smd,solvent=propyleth
 anoate) empiricaldispersion=gd3bj
 ----------------------------------------------------------------------
 1/38=1,172=1/1;
 2/12=2,15=1,17=6,18=5,40=1/2;
 3/5=44,7=202,11=2,25=1,30=1,70=32201,72=169,74=-5,124=41/1,2,3;
 4//1;
 5/5=2,7=128,38=5,53=169/2;
 6/7=2,8=2,9=2,10=2,28=1/1;
 99/5=1,9=1/99;
 Leave Link    1 at Tue Jun 11 19:46:37 2024, MaxMem=  8589934592 cpu:               0.9 elap:               0.0
 (Enter /opt/packages/gaussian/g16RevC.01/g16/l101.exe)
 -------------------
 Title Card Required
 -------------------
 Symbolic Z-matrix:
 Charge =  0 Multiplicity = 1
 C                    -2.56512   6.27422  -1.54211 
 C                    -2.58013   5.08179  -0.85919 
 C                    -1.3637    4.47688  -0.4355 
 C                    -0.13417   5.11996  -0.75733 
 C                    -0.1508    6.35854  -1.45638 
 C                    -1.3413    6.92499  -1.83703 
 H                    -3.5056    6.72269  -1.86516 
 H                    -3.53137   4.59199  -0.65077 
 C                    -1.32923   3.23502   0.28022 
 C                     1.08965   4.51107  -0.39666 
 H                     0.80109   6.83967  -1.68817 
 H                    -1.35      7.87294  -2.37694 
 C                     1.13276   3.28854   0.24731 
 C                    -0.10843   2.6585    0.58768 
 H                     2.0276    5.01011  -0.64647 
 C                    -2.64007   2.59518   0.63535 
 C                    -3.07881   1.43015   0.03039 
 C                    -3.44847   3.22104   1.63918 
 C                    -4.35034   0.85046   0.34535 
 C                    -4.72203   2.66062   1.94398 
 C                    -3.01875   4.36969   2.3606 
 C                    -5.14829   1.48965   1.27676 
 C                    -5.54352   3.27736   2.92792 
 C                    -3.82969   4.93812   3.31342 
 H                    -2.03466   4.7963    2.16517 
 H                    -6.12778   1.06854   1.51057 
 C                    -5.10789   4.39437   3.59531 
 H                    -6.51916   2.83792   3.14278 
 H                    -3.48422   5.81529   3.86231 
 H                    -5.73911   4.86266   4.35195 
 S                    -0.13993   1.04602   1.31334 
 O                    -1.09229   1.0331    2.36875 
 O                     1.15679   0.52781   1.56218 
 S                    -1.93414   0.60911  -1.04733 
 O                    -1.42518   1.56039  -1.96731 
 O                    -2.44085  -0.63069  -1.51532 
 N                    -0.71114   0.17246   0.00489 
 C                     2.43128   2.75795   0.53692 
 C                     3.58662   2.43515   0.71692 
 C                    -4.88177  -0.33838  -0.25148 
 C                    -5.4558   -1.3192   -0.67578 
 C                    -6.11795  -2.48305  -1.1843 
 C                    -7.41133  -2.8381   -0.74819 
 C                    -5.47597  -3.29252  -2.13304 
 C                    -8.03798  -3.97323  -1.25137 
 C                    -6.10933  -4.42723  -2.63285 
 H                    -4.47592  -3.01614  -2.46887 
 C                    -7.38732  -4.76942  -2.19465 
 H                    -9.03773  -4.2362   -0.90553 
 H                    -5.59898  -5.048    -3.37065 
 H                    -7.88353  -5.6583   -2.58599 
 C                     4.94556   2.03654   0.93109 
 C                     5.2239    0.82713   1.58471 
 C                     6.0201    2.83833   0.4934 
 C                     6.54129   0.42921   1.79595 
 H                     4.39175   0.20812   1.92165 
 C                     7.33371   2.43466   0.70752 
 C                     7.59585   1.22908   1.3594 
 H                     6.74394  -0.51382   2.30571 
 H                     8.15483   3.06369   0.36352 
 H                     8.62787   0.91733   1.52439 
 C                     5.73395   4.14073  -0.20953 
 F                     6.85374   4.77179  -0.56567 
 F                     5.03854   4.98333   0.56291 
 F                     5.0145    3.96129  -1.32254 
 C                    -8.11317  -1.97569   0.26972 
 F                    -9.32351  -2.44701   0.57257 
 F                    -8.27886  -0.72193  -0.16645 
 F                    -7.42663  -1.8939    1.41494 
 H                    -0.66013  -0.83945   0.15503 
 
 ITRead=  0  0  0  0  0  0  0  0  0  0  0  0  0  0  0  0  0  0  0  0
 ITRead=  0  0  0  0  0  0  0  0  0  0  0  0  0  0  0  0  0  0  0  0
 ITRead=  0  0  0  0  0  0  0  0  0  0  0  0  0  0  0  0  0  0  0  0
 ITRead=  0  0  0  0  0  0  0  0  0  0
 MicOpt= -1 -1 -1 -1 -1 -1 -1 -1 -1 -1 -1 -1 -1 -1 -1 -1 -1 -1 -1 -1
 MicOpt= -1 -1 -1 -1 -1 -1 -1 -1 -1 -1 -1 -1 -1 -1 -1 -1 -1 -1 -1 -1
 MicOpt= -1 -1 -1 -1 -1 -1 -1 -1 -1 -1 -1 -1 -1 -1 -1 -1 -1 -1 -1 -1
 MicOpt= -1 -1 -1 -1 -1 -1 -1 -1 -1 -1
 NAtoms=     70 NQM=       70 NQMF=       0 NMMI=      0 NMMIF=      0
                NMic=       0 NMicF=      0.
                    Isotopes and Nuclear Properties:
 (Nuclear quadrupole moments (NQMom) in fm**2, nuclear magnetic moments (NMagM)
  in nuclear magnetons)

  Atom         1           2           3           4           5           6           7           8           9          10
 IAtWgt=          12          12          12          12          12          12           1           1          12          12
 AtmWgt=  12.0000000  12.0000000  12.0000000  12.0000000  12.0000000  12.0000000   1.0078250   1.0078250  12.0000000  12.0000000
 NucSpn=           0           0           0           0           0           0           1           1           0           0
 AtZEff=   0.0000000   0.0000000   0.0000000   0.0000000   0.0000000   0.0000000   0.0000000   0.0000000   0.0000000   0.0000000
 NQMom=    0.0000000   0.0000000   0.0000000   0.0000000   0.0000000   0.0000000   0.0000000   0.0000000   0.0000000   0.0000000
 NMagM=    0.0000000   0.0000000   0.0000000   0.0000000   0.0000000   0.0000000   2.7928460   2.7928460   0.0000000   0.0000000
 AtZNuc=   6.0000000   6.0000000   6.0000000   6.0000000   6.0000000   6.0000000   1.0000000   1.0000000   6.0000000   6.0000000

  Atom        11          12          13          14          15          16          17          18          19          20
 IAtWgt=           1           1          12          12           1          12          12          12          12          12
 AtmWgt=   1.0078250   1.0078250  12.0000000  12.0000000   1.0078250  12.0000000  12.0000000  12.0000000  12.0000000  12.0000000
 NucSpn=           1           1           0           0           1           0           0           0           0           0
 AtZEff=   0.0000000   0.0000000   0.0000000   0.0000000   0.0000000   0.0000000   0.0000000   0.0000000   0.0000000   0.0000000
 NQMom=    0.0000000   0.0000000   0.0000000   0.0000000   0.0000000   0.0000000   0.0000000   0.0000000   0.0000000   0.0000000
 NMagM=    2.7928460   2.7928460   0.0000000   0.0000000   2.7928460   0.0000000   0.0000000   0.0000000   0.0000000   0.0000000
 AtZNuc=   1.0000000   1.0000000   6.0000000   6.0000000   1.0000000   6.0000000   6.0000000   6.0000000   6.0000000   6.0000000

  Atom        21          22          23          24          25          26          27          28          29          30
 IAtWgt=          12          12          12          12           1           1          12           1           1           1
 AtmWgt=  12.0000000  12.0000000  12.0000000  12.0000000   1.0078250   1.0078250  12.0000000   1.0078250   1.0078250   1.0078250
 NucSpn=           0           0           0           0           1           1           0           1           1           1
 AtZEff=   0.0000000   0.0000000   0.0000000   0.0000000   0.0000000   0.0000000   0.0000000   0.0000000   0.0000000   0.0000000
 NQMom=    0.0000000   0.0000000   0.0000000   0.0000000   0.0000000   0.0000000   0.0000000   0.0000000   0.0000000   0.0000000
 NMagM=    0.0000000   0.0000000   0.0000000   0.0000000   2.7928460   2.7928460   0.0000000   2.7928460   2.7928460   2.7928460
 AtZNuc=   6.0000000   6.0000000   6.0000000   6.0000000   1.0000000   1.0000000   6.0000000   1.0000000   1.0000000   1.0000000

  Atom        31          32          33          34          35          36          37          38          39          40
 IAtWgt=          32          16          16          32          16          16          14          12          12          12
 AtmWgt=  31.9720718  15.9949146  15.9949146  31.9720718  15.9949146  15.9949146  14.0030740  12.0000000  12.0000000  12.0000000
 NucSpn=           0           0           0           0           0           0           2           0           0           0
 AtZEff=   0.0000000   0.0000000   0.0000000   0.0000000   0.0000000   0.0000000   0.0000000   0.0000000   0.0000000   0.0000000
 NQMom=    0.0000000   0.0000000   0.0000000   0.0000000   0.0000000   0.0000000   2.0440000   0.0000000   0.0000000   0.0000000
 NMagM=    0.0000000   0.0000000   0.0000000   0.0000000   0.0000000   0.0000000   0.4037610   0.0000000   0.0000000   0.0000000
 AtZNuc=  16.0000000   8.0000000   8.0000000  16.0000000   8.0000000   8.0000000   7.0000000   6.0000000   6.0000000   6.0000000

  Atom        41          42          43          44          45          46          47          48          49          50
 IAtWgt=          12          12          12          12          12          12           1          12           1           1
 AtmWgt=  12.0000000  12.0000000  12.0000000  12.0000000  12.0000000  12.0000000   1.0078250  12.0000000   1.0078250   1.0078250
 NucSpn=           0           0           0           0           0           0           1           0           1           1
 AtZEff=   0.0000000   0.0000000   0.0000000   0.0000000   0.0000000   0.0000000   0.0000000   0.0000000   0.0000000   0.0000000
 NQMom=    0.0000000   0.0000000   0.0000000   0.0000000   0.0000000   0.0000000   0.0000000   0.0000000   0.0000000   0.0000000
 NMagM=    0.0000000   0.0000000   0.0000000   0.0000000   0.0000000   0.0000000   2.7928460   0.0000000   2.7928460   2.7928460
 AtZNuc=   6.0000000   6.0000000   6.0000000   6.0000000   6.0000000   6.0000000   1.0000000   6.0000000   1.0000000   1.0000000

  Atom        51          52          53          54          55          56          57          58          59          60
 IAtWgt=           1          12          12          12          12           1          12          12           1           1
 AtmWgt=   1.0078250  12.0000000  12.0000000  12.0000000  12.0000000   1.0078250  12.0000000  12.0000000   1.0078250   1.0078250
 NucSpn=           1           0           0           0           0           1           0           0           1           1
 AtZEff=   0.0000000   0.0000000   0.0000000   0.0000000   0.0000000   0.0000000   0.0000000   0.0000000   0.0000000   0.0000000
 NQMom=    0.0000000   0.0000000   0.0000000   0.0000000   0.0000000   0.0000000   0.0000000   0.0000000   0.0000000   0.0000000
 NMagM=    2.7928460   0.0000000   0.0000000   0.0000000   0.0000000   2.7928460   0.0000000   0.0000000   2.7928460   2.7928460
 AtZNuc=   1.0000000   6.0000000   6.0000000   6.0000000   6.0000000   1.0000000   6.0000000   6.0000000   1.0000000   1.0000000

  Atom        61          62          63          64          65          66          67          68          69          70
 IAtWgt=           1          12          19          19          19          12          19          19          19           1
 AtmWgt=   1.0078250  12.0000000  18.9984032  18.9984032  18.9984032  12.0000000  18.9984032  18.9984032  18.9984032   1.0078250
 NucSpn=           1           0           1           1           1           0           1           1           1           1
 AtZEff=   0.0000000   0.0000000   0.0000000   0.0000000   0.0000000   0.0000000   0.0000000   0.0000000   0.0000000   0.0000000
 NQMom=    0.0000000   0.0000000   0.0000000   0.0000000   0.0000000   0.0000000   0.0000000   0.0000000   0.0000000   0.0000000
 NMagM=    2.7928460   0.0000000   2.6288670   2.6288670   2.6288670   0.0000000   2.6288670   2.6288670   2.6288670   2.7928460
 AtZNuc=   1.0000000   6.0000000   9.0000000   9.0000000   9.0000000   6.0000000   9.0000000   9.0000000   9.0000000   1.0000000
 Leave Link  101 at Tue Jun 11 19:46:38 2024, MaxMem=  8589934592 cpu:               2.0 elap:               0.1
 (Enter /opt/packages/gaussian/g16RevC.01/g16/l202.exe)
 Symmetry turned off by external request.
 Stoichiometry    C38H19F6NO4S2
 Framework group  C1[X(C38H19F6NO4S2)]
 Deg. of freedom   204
 Full point group                 C1      NOp   1
                          Input orientation:                          
 ---------------------------------------------------------------------
 Center     Atomic      Atomic             Coordinates (Angstroms)
 Number     Number       Type             X           Y           Z
 ---------------------------------------------------------------------
      1          6           0       -2.565120    6.274222   -1.542114
      2          6           0       -2.580134    5.081789   -0.859193
      3          6           0       -1.363700    4.476879   -0.435495
      4          6           0       -0.134174    5.119960   -0.757334
      5          6           0       -0.150803    6.358541   -1.456375
      6          6           0       -1.341295    6.924990   -1.837031
      7          1           0       -3.505604    6.722693   -1.865157
      8          1           0       -3.531372    4.591991   -0.650772
      9          6           0       -1.329232    3.235015    0.280224
     10          6           0        1.089652    4.511066   -0.396655
     11          1           0        0.801093    6.839671   -1.688171
     12          1           0       -1.349999    7.872942   -2.376941
     13          6           0        1.132764    3.288536    0.247312
     14          6           0       -0.108426    2.658503    0.587679
     15          1           0        2.027604    5.010108   -0.646466
     16          6           0       -2.640074    2.595183    0.635351
     17          6           0       -3.078811    1.430149    0.030390
     18          6           0       -3.448468    3.221037    1.639179
     19          6           0       -4.350339    0.850455    0.345349
     20          6           0       -4.722027    2.660617    1.943983
     21          6           0       -3.018745    4.369692    2.360598
     22          6           0       -5.148294    1.489653    1.276762
     23          6           0       -5.543517    3.277356    2.927922
     24          6           0       -3.829694    4.938123    3.313419
     25          1           0       -2.034664    4.796295    2.165169
     26          1           0       -6.127784    1.068535    1.510574
     27          6           0       -5.107890    4.394371    3.595307
     28          1           0       -6.519157    2.837916    3.142783
     29          1           0       -3.484215    5.815292    3.862313
     30          1           0       -5.739110    4.862659    4.351946
     31         16           0       -0.139931    1.046023    1.313343
     32          8           0       -1.092287    1.033098    2.368750
     33          8           0        1.156792    0.527810    1.562177
     34         16           0       -1.934136    0.609110   -1.047327
     35          8           0       -1.425182    1.560387   -1.967307
     36          8           0       -2.440850   -0.630692   -1.515324
     37          7           0       -0.711135    0.172460    0.004890
     38          6           0        2.431279    2.757947    0.536920
     39          6           0        3.586621    2.435150    0.716921
     40          6           0       -4.881771   -0.338378   -0.251484
     41          6           0       -5.455802   -1.319200   -0.675780
     42          6           0       -6.117951   -2.483047   -1.184298
     43          6           0       -7.411333   -2.838099   -0.748192
     44          6           0       -5.475966   -3.292519   -2.133040
     45          6           0       -8.037982   -3.973234   -1.251370
     46          6           0       -6.109330   -4.427227   -2.632847
     47          1           0       -4.475924   -3.016141   -2.468871
     48          6           0       -7.387318   -4.769421   -2.194654
     49          1           0       -9.037725   -4.236199   -0.905534
     50          1           0       -5.598984   -5.048001   -3.370652
     51          1           0       -7.883526   -5.658303   -2.585986
     52          6           0        4.945557    2.036541    0.931094
     53          6           0        5.223901    0.827132    1.584714
     54          6           0        6.020095    2.838333    0.493403
     55          6           0        6.541291    0.429214    1.795949
     56          1           0        4.391749    0.208123    1.921651
     57          6           0        7.333706    2.434655    0.707516
     58          6           0        7.595846    1.229075    1.359397
     59          1           0        6.743943   -0.513821    2.305707
     60          1           0        8.154833    3.063694    0.363519
     61          1           0        8.627868    0.917333    1.524390
     62          6           0        5.733945    4.140732   -0.209530
     63          9           0        6.853742    4.771786   -0.565666
     64          9           0        5.038540    4.983325    0.562910
     65          9           0        5.014503    3.961293   -1.322540
     66          6           0       -8.113165   -1.975690    0.269724
     67          9           0       -9.323507   -2.447011    0.572569
     68          9           0       -8.278864   -0.721925   -0.166452
     69          9           0       -7.426631   -1.893895    1.414937
     70          1           0       -0.660125   -0.839454    0.155031
 ---------------------------------------------------------------------
 Rotational constants (GHZ):           0.0958026           0.0256881           0.0228875
 Leave Link  202 at Tue Jun 11 19:46:38 2024, MaxMem=  8589934592 cpu:               0.1 elap:               0.0
 (Enter /opt/packages/gaussian/g16RevC.01/g16/l301.exe)
 Standard basis: def2TZVPP (5D, 7F)
 Ernie: Thresh=  0.10000D-02 Tol=  0.10000D-05 Strict=F.
  1869 basis functions,  2960 primitive gaussians,  2145 cartesian basis functions
   186 alpha electrons      186 beta electrons
       nuclear repulsion energy      6992.5898274069 Hartrees.
 IExCor=  402 DFT=T Ex+Corr=B3LYP ExCW=0 ScaHFX=  0.200000
 ScaDFX=  0.800000  0.720000  1.000000  0.810000 ScalE2=  1.000000  1.000000
 IRadAn=      5 IRanWt=     -1 IRanGd=            0 ICorTp=0 IEmpDi=141
 NAtoms=   70 NActive=   70 NUniq=   70 SFac= 1.00D+00 NAtFMM=   60 NAOKFM=T Big=T
 Integral buffers will be    131072 words long.
 Raffenetti 2 integral format.
 Two-electron integral symmetry is turned off.
 R6Disp:  Grimme-D3(BJ) Dispersion energy=       -0.2073556494 Hartrees.
 Nuclear repulsion after empirical dispersion term =     6992.3824717575 Hartrees.
 ------------------------------------------------------------------------------
 Polarizable Continuum Model (PCM)
 =================================
 Model                : PCM.
 Atomic radii         : SMD-Coulomb.
 Polarization charges : Total charges.
 Charge compensation  : None.
 Solution method      : On-the-fly selection.
 Cavity type          : VdW (van der Waals Surface) (Alpha=1.000).
 Cavity algorithm     : GePol (No added spheres)
                        Default sphere list used, NSphG=   70.
                        Lebedev-Laikov grids with approx.  5.0 points / Ang**2.
                        Smoothing algorithm: York/Karplus (Gamma=1.0000).
                        Polarization charges: spherical gaussians, with
                                              point-specific exponents (IZeta= 3).
                        Self-potential: point-specific (ISelfS= 7).
                        Self-field    : sphere-specific E.n sum rule (ISelfD= 2).
 Solvent              : PropylEthanoate, Eps=   5.520500 Eps(inf)=   1.916010
 ------------------------------------------------------------------------------
 GePol: Number of generator spheres                  =      70
 GePol: Total number of spheres                      =      70
 GePol: Number of exposed spheres                    =      70 (100.00%)
 GePol: Number of points                             =    5622
 GePol: Average weight of points                     =       0.12
 GePol: Minimum weight of points                     =   0.10D-08
 GePol: Maximum weight of points                     =    0.21501
 GePol: Number of points with low weight             =     332
 GePol: Fraction of low-weight points (<1% of avg)   =       5.91%
 GePol: Cavity surface area                          =    660.142 Ang**2
 GePol: Cavity volume                                =    706.968 Ang**3
 ------------------------------------------------------------------------------
 Atomic radii for non-electrostatic terms: SMD-CDS.
 ------------------------------------------------------------------------------
 PCM non-electrostatic energy =        -0.0158790766 Hartrees.
 Nuclear repulsion after PCM non-electrostatic terms =     6992.3665926809 Hartrees.
 Leave Link  301 at Tue Jun 11 19:46:38 2024, MaxMem=  8589934592 cpu:               2.9 elap:               0.1
 (Enter /opt/packages/gaussian/g16RevC.01/g16/l302.exe)
 NPDir=0 NMtPBC=     1 NCelOv=     1 NCel=       1 NClECP=     1 NCelD=      1
         NCelK=      1 NCelE2=     1 NClLst=     1 CellRange=     0.0.
 One-electron integrals computed using PRISM.
   1 Symmetry operations used in ECPInt.
 ECPInt:  NShTT=  232221 NPrTT=  705096 LenC2=  145533 LenP2D=  289609.
 LDataN:  DoStor=T MaxTD1= 6 Len=  172
 NBasis=  1869 RedAO= T EigKep=  2.04D-06  NBF=  1869
 NBsUse=  1869 1.00D-06 EigRej= -1.00D+00 NBFU=  1869
 Precomputing XC quadrature grid using
 IXCGrd= 4 IRadAn=           5 IRanWt=          -1 IRanGd=           0 AccXCQ= 0.00D+00.
 Generated NRdTot=       0 NPtTot=           0 NUsed=           0 NTot=          32
 NSgBfM=  1871  1861  1868  1868  1871 MxSgAt=    70 MxSgA2=    70.
 Leave Link  302 at Tue Jun 11 19:46:43 2024, MaxMem=  8589934592 cpu:             176.5 elap:               5.6
 (Enter /opt/packages/gaussian/g16RevC.01/g16/l303.exe)
 DipDrv:  MaxL=1.
 Leave Link  303 at Tue Jun 11 19:46:44 2024, MaxMem=  8589934592 cpu:              11.6 elap:               0.5
 (Enter /opt/packages/gaussian/g16RevC.01/g16/l401.exe)
 ExpMin= 9.52D-02 ExpMax= 6.07D+04 ExpMxC= 2.07D+03 IAcc=3 IRadAn=         5 AccDes= 0.00D+00
 Harris functional with IExCor=  402 and IRadAn=       5 diagonalized for initial guess.
 HarFok:  IExCor=  402 AccDes= 0.00D+00 IRadAn=         5 IDoV= 1 UseB2=F ITyADJ=14
 ICtDFT=  3500011 ScaDFX=  1.000000  1.000000  1.000000  1.000000
 FoFCou: FMM=F IPFlag=           0 FMFlag=      100000 FMFlg1=        2001
         NFxFlg=           0 DoJE=T BraDBF=F KetDBF=T FulRan=T
         wScrn=  0.000000 ICntrl=       500 IOpCl=  0 I1Cent=   200000004 NGrid=           0
         NMat0=    1 NMatS0=      1 NMatT0=    0 NMatD0=    1 NMtDS0=    0 NMtDT0=    0
 Symmetry not used in FoFCou.
 Harris En= -3211.75381443749    
 JPrj=0 DoOrth=F DoCkMO=F.
 Leave Link  401 at Tue Jun 11 19:46:52 2024, MaxMem=  8589934592 cpu:             250.4 elap:               7.9
 (Enter /opt/packages/gaussian/g16RevC.01/g16/l502.exe)
 Two-electron integral symmetry not used.
 Closed shell SCF:
 Using DIIS extrapolation, IDIIS=  1040.
 NGot=  8589934592 LenX=  8580649231 LenY=  8576046061
 Requested convergence on RMS density matrix=1.00D-08 within 128 cycles.
 Requested convergence on MAX density matrix=1.00D-06.
 Requested convergence on             energy=1.00D-06.
 No special actions if energy rises.
 Fock matrices will be formed incrementally for  20 cycles.

 Cycle   1  Pass 1  IDiag  1:
 FoFJK:  IHMeth= 1 ICntrl=       0 DoSepK=F KAlg= 0 I1Cent=           0 FoldK=F
 IRaf= 600000000 NMat=       1 IRICut=       1 DoRegI=T DoRafI=F ISym2E= 0 IDoP0=0 IntGTp=1.
 FoFCou: FMM=T IPFlag=           0 FMFlag=      100000 FMFlg1=        2001
         NFxFlg=           0 DoJE=F BraDBF=F KetDBF=F FulRan=T
         wScrn=  0.000000 ICntrl=         0 IOpCl=  0 I1Cent=           0 NGrid=           0
         NMat0=    1 NMatS0=      1 NMatT0=    0 NMatD0=    1 NMtDS0=    0 NMtDT0=    0
 Symmetry not used in FoFCou.
 FMM levels:  10  Number of levels for PrismC:   9
 Inv3:  Mode=1 IEnd=    94820652.
 Iteration    1 A*A^-1 deviation from unit magnitude is 3.55D-15 for   1573.
 Iteration    1 A*A^-1 deviation from orthogonality  is 2.44D-15 for   3936    481.
 Iteration    1 A^-1*A deviation from unit magnitude is 3.55D-15 for   5347.
 Iteration    1 A^-1*A deviation from orthogonality  is 4.86D-10 for   1780   1678.
 Iteration    2 A*A^-1 deviation from unit magnitude is 2.11D-15 for   1068.
 Iteration    2 A*A^-1 deviation from orthogonality  is 3.73D-15 for   1754    298.
 Iteration    2 A^-1*A deviation from unit magnitude is 1.78D-15 for   1012.
 Iteration    2 A^-1*A deviation from orthogonality  is 1.04D-15 for   1425   1020.
 E= -3210.33950111432    
 DIIS: error= 1.43D-02 at cycle   1 NSaved=   1.
 NSaved= 1 IEnMin= 1 EnMin= -3210.33950111432     IErMin= 1 ErrMin= 1.43D-02
 ErrMax= 1.43D-02  0.00D+00 EMaxC= 1.00D-01 BMatC= 1.77D+00 BMatP= 1.77D+00
 IDIUse=3 WtCom= 8.57D-01 WtEn= 1.43D-01
 Coeff-Com:  0.100D+01
 Coeff-En:   0.100D+01
 Coeff:      0.100D+01
 Gap=     0.147 Goal=   None    Shift=    0.000
 GapD=    0.147 DampG=1.000 DampE=0.500 DampFc=0.5000 IDamp=-1.
 Damping current iteration by 5.00D-01
 RMSDP=4.28D-03 MaxDP=1.79D+00              OVMax= 2.63D-01

 Cycle   2  Pass 1  IDiag  1:
 RMSU=  2.11D-03    CP:  1.08D+00
 E= -3210.56171331459     Delta-E=       -0.222212200269 Rises=F Damp=T
 DIIS: error= 9.37D-03 at cycle   2 NSaved=   2.
 NSaved= 2 IEnMin= 2 EnMin= -3210.56171331459     IErMin= 2 ErrMin= 9.37D-03
 ErrMax= 9.37D-03  0.00D+00 EMaxC= 1.00D-01 BMatC= 3.64D-01 BMatP= 1.77D+00
 IDIUse=3 WtCom= 9.06D-01 WtEn= 9.37D-02
 Coeff-Com:  0.251D+00 0.749D+00
 Coeff-En:   0.418D+00 0.582D+00
 Coeff:      0.267D+00 0.733D+00
 Gap=     0.200 Goal=   None    Shift=    0.000
 RMSDP=1.96D-03 MaxDP=5.79D-01 DE=-2.22D-01 OVMax= 2.96D-01

 Cycle   3  Pass 1  IDiag  1:
 RMSU=  1.51D-03    CP:  1.09D+00  4.12D-01
 E= -3211.42771282698     Delta-E=       -0.865999512389 Rises=F Damp=F
 DIIS: error= 8.08D-03 at cycle   3 NSaved=   3.
 NSaved= 3 IEnMin= 3 EnMin= -3211.42771282698     IErMin= 3 ErrMin= 8.08D-03
 ErrMax= 8.08D-03  0.00D+00 EMaxC= 1.00D-01 BMatC= 2.91D-01 BMatP= 3.64D-01
 IDIUse=3 WtCom= 9.19D-01 WtEn= 8.08D-02
 Coeff-Com:  0.615D-01 0.467D+00 0.472D+00
 Coeff-En:   0.000D+00 0.000D+00 0.100D+01
 Coeff:      0.565D-01 0.429D+00 0.515D+00
 Gap=     0.150 Goal=   None    Shift=    0.000
 RMSDP=1.38D-03 MaxDP=2.97D-01 DE=-8.66D-01 OVMax= 1.03D-01

 Cycle   4  Pass 1  IDiag  1:
 RMSU=  5.85D-04    CP:  1.03D+00  5.74D-01  2.27D-01
 E= -3211.65300032600     Delta-E=       -0.225287499028 Rises=F Damp=F
 DIIS: error= 2.71D-03 at cycle   4 NSaved=   4.
 NSaved= 4 IEnMin= 4 EnMin= -3211.65300032600     IErMin= 4 ErrMin= 2.71D-03
 ErrMax= 2.71D-03  0.00D+00 EMaxC= 1.00D-01 BMatC= 4.10D-02 BMatP= 2.91D-01
 IDIUse=3 WtCom= 9.73D-01 WtEn= 2.71D-02
 Coeff-Com:  0.195D-02 0.148D+00 0.307D+00 0.543D+00
 Coeff-En:   0.000D+00 0.000D+00 0.131D+00 0.869D+00
 Coeff:      0.190D-02 0.144D+00 0.302D+00 0.552D+00
 Gap=     0.145 Goal=   None    Shift=    0.000
 RMSDP=3.79D-04 MaxDP=1.45D-01 DE=-2.25D-01 OVMax= 4.74D-02

 Cycle   5  Pass 1  IDiag  1:
 RMSU=  1.83D-04    CP:  1.04D+00  5.17D-01  4.04D-01  7.43D-01
 E= -3211.68494756946     Delta-E=       -0.031947243460 Rises=F Damp=F
 DIIS: error= 1.15D-03 at cycle   5 NSaved=   5.
 NSaved= 5 IEnMin= 5 EnMin= -3211.68494756946     IErMin= 5 ErrMin= 1.15D-03
 ErrMax= 1.15D-03  0.00D+00 EMaxC= 1.00D-01 BMatC= 4.72D-03 BMatP= 4.10D-02
 IDIUse=3 WtCom= 9.89D-01 WtEn= 1.15D-02
 Coeff-Com: -0.730D-02 0.327D-01 0.118D+00 0.331D+00 0.526D+00
 Coeff-En:   0.000D+00 0.000D+00 0.000D+00 0.945D-01 0.906D+00
 Coeff:     -0.722D-02 0.323D-01 0.116D+00 0.329D+00 0.530D+00
 Gap=     0.140 Goal=   None    Shift=    0.000
 RMSDP=9.38D-05 MaxDP=2.66D-02 DE=-3.19D-02 OVMax= 1.83D-02

 Cycle   6  Pass 1  IDiag  1:
 RMSU=  4.90D-05    CP:  1.04D+00  5.26D-01  3.84D-01  7.86D-01  6.35D-01
 E= -3211.68885109978     Delta-E=       -0.003903530321 Rises=F Damp=F
 DIIS: error= 5.32D-04 at cycle   6 NSaved=   6.
 NSaved= 6 IEnMin= 6 EnMin= -3211.68885109978     IErMin= 6 ErrMin= 5.32D-04
 ErrMax= 5.32D-04  0.00D+00 EMaxC= 1.00D-01 BMatC= 8.34D-04 BMatP= 4.72D-03
 IDIUse=3 WtCom= 9.95D-01 WtEn= 5.32D-03
 Coeff-Com: -0.469D-02 0.512D-02 0.395D-01 0.147D+00 0.347D+00 0.467D+00
 Coeff-En:   0.000D+00 0.000D+00 0.000D+00 0.000D+00 0.151D+00 0.849D+00
 Coeff:     -0.467D-02 0.509D-02 0.393D-01 0.146D+00 0.346D+00 0.469D+00
 Gap=     0.140 Goal=   None    Shift=    0.000
 RMSDP=4.32D-05 MaxDP=1.28D-02 DE=-3.90D-03 OVMax= 6.36D-03

 Cycle   7  Pass 1  IDiag  1:
 RMSU=  2.43D-05    CP:  1.04D+00  5.30D-01  3.97D-01  7.71D-01  7.55D-01
                    CP:  7.42D-01
 E= -3211.68961455795     Delta-E=       -0.000763458171 Rises=F Damp=F
 DIIS: error= 1.46D-04 at cycle   7 NSaved=   7.
 NSaved= 7 IEnMin= 7 EnMin= -3211.68961455795     IErMin= 7 ErrMin= 1.46D-04
 ErrMax= 1.46D-04  0.00D+00 EMaxC= 1.00D-01 BMatC= 5.99D-05 BMatP= 8.34D-04
 IDIUse=3 WtCom= 9.99D-01 WtEn= 1.46D-03
 Coeff-Com: -0.157D-02-0.342D-03 0.843D-02 0.412D-01 0.129D+00 0.271D+00
 Coeff-Com:  0.552D+00
 Coeff-En:   0.000D+00 0.000D+00 0.000D+00 0.000D+00 0.000D+00 0.291D-01
 Coeff-En:   0.971D+00
 Coeff:     -0.156D-02-0.341D-03 0.842D-02 0.411D-01 0.129D+00 0.271D+00
 Coeff:      0.553D+00
 Gap=     0.140 Goal=   None    Shift=    0.000
 RMSDP=9.49D-06 MaxDP=2.76D-03 DE=-7.63D-04 OVMax= 1.61D-03

 Cycle   8  Pass 1  IDiag  1:
 RMSU=  6.73D-06    CP:  1.04D+00  5.31D-01  3.96D-01  7.75D-01  7.37D-01
                    CP:  7.46D-01  8.13D-01
 E= -3211.68966890985     Delta-E=       -0.000054351899 Rises=F Damp=F
 DIIS: error= 3.57D-05 at cycle   8 NSaved=   8.
 NSaved= 8 IEnMin= 8 EnMin= -3211.68966890985     IErMin= 8 ErrMin= 3.57D-05
 ErrMax= 3.57D-05  0.00D+00 EMaxC= 1.00D-01 BMatC= 4.67D-06 BMatP= 5.99D-05
 IDIUse=1 WtCom= 1.00D+00 WtEn= 0.00D+00
 Coeff-Com: -0.450D-03-0.708D-03 0.117D-02 0.104D-01 0.435D-01 0.114D+00
 Coeff-Com:  0.300D+00 0.532D+00
 Coeff:     -0.450D-03-0.708D-03 0.117D-02 0.104D-01 0.435D-01 0.114D+00
 Coeff:      0.300D+00 0.532D+00
 Gap=     0.140 Goal=   None    Shift=    0.000
 RMSDP=3.38D-06 MaxDP=9.41D-04 DE=-5.44D-05 OVMax= 5.94D-04

 Cycle   9  Pass 1  IDiag  1:
 RMSU=  1.72D-06    CP:  1.04D+00  5.31D-01  3.95D-01  7.76D-01  7.31D-01
                    CP:  7.53D-01  7.80D-01  8.59D-01
 E= -3211.68967244826     Delta-E=       -0.000003538411 Rises=F Damp=F
 DIIS: error= 1.63D-05 at cycle   9 NSaved=   9.
 NSaved= 9 IEnMin= 9 EnMin= -3211.68967244826     IErMin= 9 ErrMin= 1.63D-05
 ErrMax= 1.63D-05  0.00D+00 EMaxC= 1.00D-01 BMatC= 9.34D-07 BMatP= 4.67D-06
 IDIUse=1 WtCom= 1.00D+00 WtEn= 0.00D+00
 Coeff-Com: -0.668D-04-0.356D-03-0.388D-03 0.904D-03 0.983D-02 0.354D-01
 Coeff-Com:  0.111D+00 0.334D+00 0.510D+00
 Coeff:     -0.668D-04-0.356D-03-0.388D-03 0.904D-03 0.983D-02 0.354D-01
 Coeff:      0.111D+00 0.334D+00 0.510D+00
 Gap=     0.141 Goal=   None    Shift=    0.000
 RMSDP=1.38D-06 MaxDP=4.87D-04 DE=-3.54D-06 OVMax= 3.08D-04

 Cycle  10  Pass 1  IDiag  1:
 RMSU=  7.51D-07    CP:  1.04D+00  5.30D-01  3.95D-01  7.76D-01  7.35D-01
                    CP:  7.53D-01  7.92D-01  8.17D-01  7.43D-01
 E= -3211.68967325452     Delta-E=       -0.000000806253 Rises=F Damp=F
 DIIS: error= 6.12D-06 at cycle  10 NSaved=  10.
 NSaved=10 IEnMin=10 EnMin= -3211.68967325452     IErMin=10 ErrMin= 6.12D-06
 ErrMax= 6.12D-06  0.00D+00 EMaxC= 1.00D-01 BMatC= 1.55D-07 BMatP= 9.34D-07
 IDIUse=1 WtCom= 1.00D+00 WtEn= 0.00D+00
 Coeff-Com:  0.879D-05-0.126D-03-0.406D-03-0.763D-03 0.100D-02 0.941D-02
 Coeff-Com:  0.359D-01 0.150D+00 0.336D+00 0.469D+00
 Coeff:      0.879D-05-0.126D-03-0.406D-03-0.763D-03 0.100D-02 0.941D-02
 Coeff:      0.359D-01 0.150D+00 0.336D+00 0.469D+00
 Gap=     0.140 Goal=   None    Shift=    0.000
 RMSDP=5.46D-07 MaxDP=1.90D-04 DE=-8.06D-07 OVMax= 1.00D-04

 Cycle  11  Pass 1  IDiag  1:
 RMSU=  2.62D-07    CP:  1.04D+00  5.31D-01  3.95D-01  7.76D-01  7.34D-01
                    CP:  7.54D-01  7.92D-01  8.54D-01  8.19D-01  6.86D-01
 E= -3211.68967339591     Delta-E=       -0.000000141387 Rises=F Damp=F
 DIIS: error= 3.03D-06 at cycle  11 NSaved=  11.
 NSaved=11 IEnMin=11 EnMin= -3211.68967339591     IErMin=11 ErrMin= 3.03D-06
 ErrMax= 3.03D-06  0.00D+00 EMaxC= 1.00D-01 BMatC= 1.21D-08 BMatP= 1.55D-07
 IDIUse=1 WtCom= 1.00D+00 WtEn= 0.00D+00
 Coeff-Com:  0.817D-05-0.259D-04-0.185D-03-0.518D-03-0.585D-03 0.120D-02
 Coeff-Com:  0.698D-02 0.420D-01 0.128D+00 0.268D+00 0.555D+00
 Coeff:      0.817D-05-0.259D-04-0.185D-03-0.518D-03-0.585D-03 0.120D-02
 Coeff:      0.698D-02 0.420D-01 0.128D+00 0.268D+00 0.555D+00
 Gap=     0.140 Goal=   None    Shift=    0.000
 RMSDP=2.30D-07 MaxDP=5.59D-05 DE=-1.41D-07 OVMax= 3.14D-05

 Cycle  12  Pass 1  IDiag  1:
 RMSU=  1.13D-07    CP:  1.04D+00  5.31D-01  3.95D-01  7.76D-01  7.35D-01
                    CP:  7.55D-01  7.95D-01  8.60D-01  8.01D-01  7.13D-01
                    CP:  7.14D-01
 E= -3211.68967340804     Delta-E=       -0.000000012137 Rises=F Damp=F
 DIIS: error= 8.05D-07 at cycle  12 NSaved=  12.
 NSaved=12 IEnMin=12 EnMin= -3211.68967340804     IErMin=12 ErrMin= 8.05D-07
 ErrMax= 8.05D-07  0.00D+00 EMaxC= 1.00D-01 BMatC= 1.33D-09 BMatP= 1.21D-08
 IDIUse=1 WtCom= 1.00D+00 WtEn= 0.00D+00
 Coeff-Com:  0.233D-05 0.560D-05-0.519D-04-0.184D-03-0.515D-03-0.701D-03
 Coeff-Com: -0.142D-02 0.539D-03 0.197D-01 0.665D-01 0.289D+00 0.627D+00
 Coeff:      0.233D-05 0.560D-05-0.519D-04-0.184D-03-0.515D-03-0.701D-03
 Coeff:     -0.142D-02 0.539D-03 0.197D-01 0.665D-01 0.289D+00 0.627D+00
 Gap=     0.140 Goal=   None    Shift=    0.000
 RMSDP=9.33D-08 MaxDP=2.47D-05 DE=-1.21D-08 OVMax= 1.21D-05

 Cycle  13  Pass 1  IDiag  1:
 RMSU=  3.19D-08    CP:  1.04D+00  5.31D-01  3.95D-01  7.76D-01  7.35D-01
                    CP:  7.55D-01  7.95D-01  8.58D-01  8.13D-01  7.33D-01
                    CP:  7.58D-01  8.25D-01
 E= -3211.68967340948     Delta-E=       -0.000000001438 Rises=F Damp=F
 DIIS: error= 1.43D-07 at cycle  13 NSaved=  13.
 NSaved=13 IEnMin=13 EnMin= -3211.68967340948     IErMin=13 ErrMin= 1.43D-07
 ErrMax= 1.43D-07  0.00D+00 EMaxC= 1.00D-01 BMatC= 1.20D-10 BMatP= 1.33D-09
 IDIUse=1 WtCom= 1.00D+00 WtEn= 0.00D+00
 Coeff-Com:  0.184D-06 0.569D-05-0.863D-05-0.404D-04-0.218D-03-0.487D-03
 Coeff-Com: -0.150D-02-0.416D-02-0.295D-02 0.186D-02 0.860D-01 0.298D+00
 Coeff-Com:  0.623D+00
 Coeff:      0.184D-06 0.569D-05-0.863D-05-0.404D-04-0.218D-03-0.487D-03
 Coeff:     -0.150D-02-0.416D-02-0.295D-02 0.186D-02 0.860D-01 0.298D+00
 Coeff:      0.623D+00
 Gap=     0.140 Goal=   None    Shift=    0.000
 RMSDP=1.82D-08 MaxDP=3.85D-06 DE=-1.44D-09 OVMax= 3.14D-06

 Cycle  14  Pass 1  IDiag  1:
 RMSU=  1.34D-08    CP:  1.04D+00  5.31D-01  3.95D-01  7.76D-01  7.35D-01
                    CP:  7.55D-01  7.95D-01  8.59D-01  8.14D-01  7.34D-01
                    CP:  7.80D-01  8.55D-01  8.01D-01
 E= -3211.68967340967     Delta-E=       -0.000000000188 Rises=F Damp=F
 DIIS: error= 4.87D-08 at cycle  14 NSaved=  14.
 NSaved=14 IEnMin=14 EnMin= -3211.68967340967     IErMin=14 ErrMin= 4.87D-08
 ErrMax= 4.87D-08  0.00D+00 EMaxC= 1.00D-01 BMatC= 2.02D-11 BMatP= 1.20D-10
 IDIUse=1 WtCom= 1.00D+00 WtEn= 0.00D+00
 Coeff-Com: -0.289D-06 0.229D-05 0.316D-05 0.674D-05-0.457D-04-0.160D-03
 Coeff-Com: -0.627D-03-0.244D-02-0.457D-02-0.100D-01 0.573D-02 0.748D-01
 Coeff-Com:  0.344D+00 0.594D+00
 Coeff:     -0.289D-06 0.229D-05 0.316D-05 0.674D-05-0.457D-04-0.160D-03
 Coeff:     -0.627D-03-0.244D-02-0.457D-02-0.100D-01 0.573D-02 0.748D-01
 Coeff:      0.344D+00 0.594D+00
 Gap=     0.140 Goal=   None    Shift=    0.000
 RMSDP=9.97D-09 MaxDP=1.95D-06 DE=-1.88D-10 OVMax= 1.33D-06

 Cycle  15  Pass 1  IDiag  1:
 RMSU=  5.02D-09    CP:  1.04D+00  5.31D-01  3.95D-01  7.76D-01  7.35D-01
                    CP:  7.55D-01  7.95D-01  8.59D-01  8.14D-01  7.34D-01
                    CP:  7.86D-01  8.67D-01  9.16D-01  7.03D-01
 E= -3211.68967340967     Delta-E=       -0.000000000002 Rises=F Damp=F
 DIIS: error= 2.39D-08 at cycle  15 NSaved=  15.
 NSaved=15 IEnMin=15 EnMin= -3211.68967340967     IErMin=15 ErrMin= 2.39D-08
 ErrMax= 2.39D-08  0.00D+00 EMaxC= 1.00D-01 BMatC= 3.02D-12 BMatP= 2.02D-11
 IDIUse=1 WtCom= 1.00D+00 WtEn= 0.00D+00
 Coeff-Com: -0.124D-06 0.548D-06 0.242D-05 0.757D-05-0.190D-05-0.281D-04
 Coeff-Com: -0.161D-03-0.797D-03-0.196D-02-0.554D-02-0.518D-02 0.862D-02
 Coeff-Com:  0.120D+00 0.342D+00 0.543D+00
 Coeff:     -0.124D-06 0.548D-06 0.242D-05 0.757D-05-0.190D-05-0.281D-04
 Coeff:     -0.161D-03-0.797D-03-0.196D-02-0.554D-02-0.518D-02 0.862D-02
 Coeff:      0.120D+00 0.342D+00 0.543D+00
 Gap=     0.140 Goal=   None    Shift=    0.000
 RMSDP=3.52D-09 MaxDP=5.86D-07 DE=-1.82D-12 OVMax= 4.40D-07

 Error on total polarization charges =  0.06007
 SCF Done:  E(RB3LYP) =  -3211.68967341     A.U. after   15 cycles
            NFock= 15  Conv=0.35D-08     -V/T= 2.0040
 KE= 3.198749587919D+03 PE=-2.153209394363D+04 EE= 8.129288089619D+03
 SMD-CDS (non-electrostatic) energy       (kcal/mol) =      -9.96
 (included in total energy above)
 Leave Link  502 at Tue Jun 11 20:08:45 2024, MaxMem=  8589934592 cpu:           41481.9 elap:            1313.7
 (Enter /opt/packages/gaussian/g16RevC.01/g16/l601.exe)
 Copying SCF densities to generalized density rwf, IOpCl= 0 IROHF=0.

 **********************************************************************

            Population analysis using the SCF Density.

 **********************************************************************

 Alpha  occ. eigenvalues --  -89.07281 -89.07275 -24.72149 -24.72118 -24.71752
 Alpha  occ. eigenvalues --  -24.71743 -24.71728 -24.71704 -19.13834 -19.13674
 Alpha  occ. eigenvalues --  -19.13598 -19.13432 -14.37157 -10.42860 -10.42828
 Alpha  occ. eigenvalues --  -10.23183 -10.23136 -10.23091 -10.23064 -10.23046
 Alpha  occ. eigenvalues --  -10.22863 -10.22279 -10.22245 -10.21155 -10.21126
 Alpha  occ. eigenvalues --  -10.20924 -10.20864 -10.20612 -10.20533 -10.20030
 Alpha  occ. eigenvalues --  -10.20007 -10.19631 -10.19602 -10.19354 -10.19323
 Alpha  occ. eigenvalues --  -10.19128 -10.19100 -10.19054 -10.19029 -10.19001
 Alpha  occ. eigenvalues --  -10.18978 -10.18960 -10.18955 -10.18933 -10.18929
 Alpha  occ. eigenvalues --  -10.18904 -10.18867 -10.18863 -10.18830 -10.18567
 Alpha  occ. eigenvalues --  -10.18549  -8.11941  -8.11924  -6.08346  -6.08330
 Alpha  occ. eigenvalues --   -6.08104  -6.08097  -6.08083  -6.08062  -1.32852
 Alpha  occ. eigenvalues --   -1.32824  -1.23824  -1.23792  -1.23443  -1.23414
 Alpha  occ. eigenvalues --   -1.15783  -1.14496  -1.03937  -1.03587  -0.94637
 Alpha  occ. eigenvalues --   -0.91478  -0.89742  -0.88702  -0.88671  -0.85704
 Alpha  occ. eigenvalues --   -0.85419  -0.83267  -0.80240  -0.79958  -0.79178
 Alpha  occ. eigenvalues --   -0.78954  -0.78763  -0.77885  -0.77606  -0.76272
 Alpha  occ. eigenvalues --   -0.76035  -0.73404  -0.72838  -0.71092  -0.70983
 Alpha  occ. eigenvalues --   -0.70256  -0.69190  -0.66169  -0.65759  -0.64418
 Alpha  occ. eigenvalues --   -0.64244  -0.63890  -0.63742  -0.63303  -0.62929
 Alpha  occ. eigenvalues --   -0.60902  -0.60477  -0.60446  -0.60115  -0.60084
 Alpha  occ. eigenvalues --   -0.59494  -0.58307  -0.58125  -0.57222  -0.56148
 Alpha  occ. eigenvalues --   -0.54934  -0.54118  -0.53640  -0.53035  -0.52625
 Alpha  occ. eigenvalues --   -0.52212  -0.52159  -0.51283  -0.48778  -0.48693
 Alpha  occ. eigenvalues --   -0.48603  -0.48365  -0.48319  -0.48291  -0.47936
 Alpha  occ. eigenvalues --   -0.47689  -0.47558  -0.47435  -0.47412  -0.47257
 Alpha  occ. eigenvalues --   -0.46526  -0.46257  -0.46163  -0.45022  -0.44983
 Alpha  occ. eigenvalues --   -0.44727  -0.44562  -0.44531  -0.44260  -0.44147
 Alpha  occ. eigenvalues --   -0.43634  -0.43239  -0.43209  -0.42264  -0.42123
 Alpha  occ. eigenvalues --   -0.42070  -0.41637  -0.41424  -0.41320  -0.41251
 Alpha  occ. eigenvalues --   -0.40343  -0.40165  -0.39730  -0.39685  -0.38806
 Alpha  occ. eigenvalues --   -0.37540  -0.37374  -0.37170  -0.37147  -0.37064
 Alpha  occ. eigenvalues --   -0.36814  -0.36708  -0.36677  -0.36499  -0.35901
 Alpha  occ. eigenvalues --   -0.35855  -0.35160  -0.34923  -0.34032  -0.33888
 Alpha  occ. eigenvalues --   -0.33818  -0.32208  -0.32100  -0.30547  -0.30301
 Alpha  occ. eigenvalues --   -0.30255  -0.28083  -0.27990  -0.27930  -0.27869
 Alpha  occ. eigenvalues --   -0.27825  -0.27804  -0.25897  -0.25114  -0.22780
 Alpha  occ. eigenvalues --   -0.22444
 Alpha virt. eigenvalues --   -0.08395  -0.08096  -0.07458  -0.06897  -0.03674
 Alpha virt. eigenvalues --   -0.03544  -0.02902  -0.02468  -0.00808  -0.00095
 Alpha virt. eigenvalues --    0.02921   0.02971   0.03420   0.03507   0.03845
 Alpha virt. eigenvalues --    0.04342   0.05063   0.05184   0.05529   0.05751
 Alpha virt. eigenvalues --    0.06039   0.06288   0.06500   0.06750   0.07074
 Alpha virt. eigenvalues --    0.07797   0.08607   0.08705   0.08946   0.09041
 Alpha virt. eigenvalues --    0.09417   0.09449   0.09852   0.09968   0.10215
 Alpha virt. eigenvalues --    0.10727   0.10786   0.11208   0.11320   0.11463
 Alpha virt. eigenvalues --    0.11886   0.12098   0.12257   0.12529   0.12964
 Alpha virt. eigenvalues --    0.13099   0.13379   0.13885   0.14163   0.14190
 Alpha virt. eigenvalues --    0.14380   0.14765   0.15707   0.15776   0.15953
 Alpha virt. eigenvalues --    0.16234   0.16785   0.16861   0.17266   0.17395
 Alpha virt. eigenvalues --    0.17797   0.17909   0.18722   0.18892   0.19177
 Alpha virt. eigenvalues --    0.19485   0.19639   0.19782   0.19898   0.19968
 Alpha virt. eigenvalues --    0.20168   0.20349   0.20483   0.20590   0.20709
 Alpha virt. eigenvalues --    0.20800   0.21044   0.21394   0.21552   0.21650
 Alpha virt. eigenvalues --    0.21762   0.22169   0.22482   0.22547   0.22648
 Alpha virt. eigenvalues --    0.23075   0.23546   0.23858   0.24035   0.24309
 Alpha virt. eigenvalues --    0.24585   0.24646   0.24760   0.24884   0.25025
 Alpha virt. eigenvalues --    0.25237   0.25479   0.25668   0.26059   0.26290
 Alpha virt. eigenvalues --    0.26396   0.26775   0.27067   0.27360   0.27574
 Alpha virt. eigenvalues --    0.27642   0.27914   0.28289   0.28682   0.28814
 Alpha virt. eigenvalues --    0.29012   0.29043   0.29193   0.29271   0.29452
 Alpha virt. eigenvalues --    0.29537   0.30053   0.30360   0.30624   0.31187
 Alpha virt. eigenvalues --    0.31346   0.31581   0.31662   0.32042   0.32149
 Alpha virt. eigenvalues --    0.32279   0.32581   0.32705   0.32941   0.33096
 Alpha virt. eigenvalues --    0.33268   0.33700   0.33883   0.34019   0.34261
 Alpha virt. eigenvalues --    0.34481   0.34648   0.34915   0.34976   0.35211
 Alpha virt. eigenvalues --    0.35768   0.35914   0.36205   0.36473   0.36793
 Alpha virt. eigenvalues --    0.36923   0.37043   0.37502   0.37876   0.37981
 Alpha virt. eigenvalues --    0.38200   0.38368   0.38454   0.38951   0.39144
 Alpha virt. eigenvalues --    0.39259   0.39478   0.39651   0.40111   0.40706
 Alpha virt. eigenvalues --    0.40762   0.40939   0.41205   0.41729   0.41795
 Alpha virt. eigenvalues --    0.41925   0.42014   0.42229   0.42762   0.42830
 Alpha virt. eigenvalues --    0.43082   0.43265   0.43547   0.43632   0.43741
 Alpha virt. eigenvalues --    0.43835   0.43894   0.44318   0.44424   0.44547
 Alpha virt. eigenvalues --    0.44834   0.45166   0.45212   0.45397   0.45820
 Alpha virt. eigenvalues --    0.45964   0.46170   0.46322   0.46539   0.47268
 Alpha virt. eigenvalues --    0.47418   0.47670   0.47830   0.48151   0.48221
 Alpha virt. eigenvalues --    0.48483   0.48719   0.48818   0.49019   0.49239
 Alpha virt. eigenvalues --    0.49478   0.49698   0.49761   0.50188   0.50355
 Alpha virt. eigenvalues --    0.50797   0.50821   0.51043   0.51467   0.51816
 Alpha virt. eigenvalues --    0.52158   0.52296   0.52558   0.52765   0.52831
 Alpha virt. eigenvalues --    0.52949   0.53086   0.53420   0.54062   0.54442
 Alpha virt. eigenvalues --    0.54598   0.54898   0.55153   0.55787   0.56213
 Alpha virt. eigenvalues --    0.56296   0.56960   0.57096   0.57865   0.58058
 Alpha virt. eigenvalues --    0.58410   0.58529   0.59340   0.59529   0.59916
 Alpha virt. eigenvalues --    0.60150   0.60411   0.60646   0.61455   0.61509
 Alpha virt. eigenvalues --    0.61607   0.62260   0.62915   0.63315   0.63389
 Alpha virt. eigenvalues --    0.63750   0.63964   0.64139   0.64672   0.64765
 Alpha virt. eigenvalues --    0.64954   0.65267   0.65415   0.65982   0.66033
 Alpha virt. eigenvalues --    0.66146   0.66227   0.66578   0.66664   0.66813
 Alpha virt. eigenvalues --    0.67053   0.67348   0.67362   0.67510   0.67562
 Alpha virt. eigenvalues --    0.67780   0.68085   0.68220   0.68332   0.68529
 Alpha virt. eigenvalues --    0.68614   0.69208   0.69349   0.69417   0.70181
 Alpha virt. eigenvalues --    0.70292   0.70710   0.70844   0.71217   0.71375
 Alpha virt. eigenvalues --    0.71706   0.72209   0.72336   0.72594   0.72982
 Alpha virt. eigenvalues --    0.73190   0.73305   0.73553   0.73613   0.74005
 Alpha virt. eigenvalues --    0.74079   0.74356   0.74653   0.75260   0.75349
 Alpha virt. eigenvalues --    0.75627   0.75785   0.76062   0.76341   0.76489
 Alpha virt. eigenvalues --    0.76970   0.77191   0.77363   0.77427   0.77557
 Alpha virt. eigenvalues --    0.77917   0.78015   0.78096   0.78735   0.78957
 Alpha virt. eigenvalues --    0.79015   0.79788   0.80024   0.80389   0.80701
 Alpha virt. eigenvalues --    0.80893   0.81102   0.81559   0.82108   0.82205
 Alpha virt. eigenvalues --    0.82645   0.82903   0.83007   0.83321   0.83939
 Alpha virt. eigenvalues --    0.84079   0.84248   0.84414   0.84477   0.84824
 Alpha virt. eigenvalues --    0.85102   0.85498   0.85652   0.86152   0.86549
 Alpha virt. eigenvalues --    0.86628   0.86927   0.87091   0.87344   0.87699
 Alpha virt. eigenvalues --    0.88395   0.88671   0.89028   0.89140   0.89297
 Alpha virt. eigenvalues --    0.89604   0.89949   0.90170   0.90332   0.90418
 Alpha virt. eigenvalues --    0.90612   0.90667   0.91360   0.91581   0.91879
 Alpha virt. eigenvalues --    0.92246   0.92709   0.92889   0.93409   0.93724
 Alpha virt. eigenvalues --    0.94136   0.94308   0.94435   0.94625   0.95113
 Alpha virt. eigenvalues --    0.95367   0.95620   0.95763   0.95910   0.96249
 Alpha virt. eigenvalues --    0.96266   0.96573   0.97167   0.97380   0.97532
 Alpha virt. eigenvalues --    0.97761   0.98021   0.98145   0.98499   0.99050
 Alpha virt. eigenvalues --    0.99440   0.99853   1.00092   1.00362   1.00710
 Alpha virt. eigenvalues --    1.00866   1.01260   1.01679   1.01815   1.02156
 Alpha virt. eigenvalues --    1.02584   1.02965   1.03104   1.03718   1.04053
 Alpha virt. eigenvalues --    1.05251   1.05493   1.05795   1.05889   1.06212
 Alpha virt. eigenvalues --    1.06431   1.06993   1.07105   1.07380   1.08072
 Alpha virt. eigenvalues --    1.08437   1.09276   1.09489   1.09756   1.09931
 Alpha virt. eigenvalues --    1.10671   1.10841   1.11123   1.11372   1.11436
 Alpha virt. eigenvalues --    1.12284   1.12396   1.12563   1.13229   1.13266
 Alpha virt. eigenvalues --    1.13348   1.13948   1.14307   1.14890   1.15013
 Alpha virt. eigenvalues --    1.15429   1.15586   1.15859   1.16056   1.16114
 Alpha virt. eigenvalues --    1.16255   1.16699   1.17114   1.17758   1.17866
 Alpha virt. eigenvalues --    1.18167   1.18293   1.18911   1.19602   1.20021
 Alpha virt. eigenvalues --    1.20206   1.20692   1.20946   1.21037   1.21235
 Alpha virt. eigenvalues --    1.21600   1.22062   1.22359   1.22670   1.23189
 Alpha virt. eigenvalues --    1.23701   1.24017   1.24637   1.25008   1.25443
 Alpha virt. eigenvalues --    1.25921   1.26277   1.26383   1.26462   1.26970
 Alpha virt. eigenvalues --    1.27138   1.27583   1.28052   1.28331   1.28439
 Alpha virt. eigenvalues --    1.29017   1.29716   1.30128   1.30248   1.30493
 Alpha virt. eigenvalues --    1.30809   1.30900   1.31085   1.31171   1.31194
 Alpha virt. eigenvalues --    1.31303   1.31954   1.32028   1.32425   1.32480
 Alpha virt. eigenvalues --    1.32874   1.33371   1.33649   1.33842   1.34109
 Alpha virt. eigenvalues --    1.34366   1.34700   1.35085   1.35439   1.35924
 Alpha virt. eigenvalues --    1.35997   1.36076   1.36322   1.36539   1.36580
 Alpha virt. eigenvalues --    1.36651   1.36966   1.37618   1.37884   1.38225
 Alpha virt. eigenvalues --    1.38393   1.38896   1.39613   1.39834   1.40059
 Alpha virt. eigenvalues --    1.40445   1.40563   1.40608   1.40828   1.41270
 Alpha virt. eigenvalues --    1.41814   1.42134   1.42548   1.43150   1.43378
 Alpha virt. eigenvalues --    1.43501   1.43836   1.44469   1.44694   1.44881
 Alpha virt. eigenvalues --    1.45239   1.45492   1.45979   1.46422   1.46543
 Alpha virt. eigenvalues --    1.46869   1.47193   1.47353   1.47729   1.48562
 Alpha virt. eigenvalues --    1.49106   1.49729   1.49891   1.50270   1.50971
 Alpha virt. eigenvalues --    1.51293   1.52195   1.52285   1.52357   1.52872
 Alpha virt. eigenvalues --    1.53364   1.53446   1.53830   1.53939   1.54026
 Alpha virt. eigenvalues --    1.54425   1.54650   1.54881   1.55103   1.55640
 Alpha virt. eigenvalues --    1.55713   1.56082   1.56767   1.56991   1.57273
 Alpha virt. eigenvalues --    1.58103   1.58665   1.59011   1.59571   1.60457
 Alpha virt. eigenvalues --    1.60786   1.61042   1.61170   1.61407   1.61955
 Alpha virt. eigenvalues --    1.62095   1.62806   1.63089   1.63236   1.64043
 Alpha virt. eigenvalues --    1.64472   1.65168   1.65693   1.65725   1.65760
 Alpha virt. eigenvalues --    1.66012   1.66659   1.66759   1.66940   1.67429
 Alpha virt. eigenvalues --    1.67823   1.67990   1.68452   1.68577   1.68791
 Alpha virt. eigenvalues --    1.69170   1.69937   1.70413   1.70857   1.71084
 Alpha virt. eigenvalues --    1.71332   1.71637   1.72413   1.73024   1.73172
 Alpha virt. eigenvalues --    1.73509   1.73701   1.73977   1.74685   1.74880
 Alpha virt. eigenvalues --    1.75244   1.75683   1.76151   1.76412   1.76830
 Alpha virt. eigenvalues --    1.76950   1.77264   1.77350   1.77725   1.78446
 Alpha virt. eigenvalues --    1.79071   1.79142   1.79454   1.79531   1.79956
 Alpha virt. eigenvalues --    1.80566   1.81166   1.82258   1.82542   1.82814
 Alpha virt. eigenvalues --    1.82869   1.83305   1.84553   1.84742   1.84934
 Alpha virt. eigenvalues --    1.85436   1.85529   1.86307   1.86481   1.87283
 Alpha virt. eigenvalues --    1.87315   1.87735   1.87876   1.88733   1.89027
 Alpha virt. eigenvalues --    1.89322   1.89648   1.90805   1.91079   1.92067
 Alpha virt. eigenvalues --    1.92703   1.93026   1.93388   1.93673   1.93982
 Alpha virt. eigenvalues --    1.94346   1.94562   1.94996   1.95365   1.95764
 Alpha virt. eigenvalues --    1.96324   1.96536   1.97086   1.97392   1.98025
 Alpha virt. eigenvalues --    1.98581   1.99035   1.99502   1.99712   2.00192
 Alpha virt. eigenvalues --    2.01124   2.01654   2.01816   2.02117   2.02330
 Alpha virt. eigenvalues --    2.03565   2.04259   2.04462   2.04881   2.05107
 Alpha virt. eigenvalues --    2.05183   2.05568   2.05764   2.06631   2.06824
 Alpha virt. eigenvalues --    2.07108   2.07538   2.08133   2.08498   2.08808
 Alpha virt. eigenvalues --    2.09095   2.09332   2.09717   2.10145   2.10633
 Alpha virt. eigenvalues --    2.10840   2.11272   2.11800   2.11921   2.12053
 Alpha virt. eigenvalues --    2.12089   2.12417   2.12813   2.13422   2.14009
 Alpha virt. eigenvalues --    2.14553   2.15354   2.15497   2.16090   2.16551
 Alpha virt. eigenvalues --    2.16876   2.17933   2.18662   2.18885   2.19854
 Alpha virt. eigenvalues --    2.20258   2.20936   2.21702   2.22394   2.22613
 Alpha virt. eigenvalues --    2.22808   2.23199   2.23647   2.24567   2.24678
 Alpha virt. eigenvalues --    2.25208   2.25485   2.25779   2.26324   2.26533
 Alpha virt. eigenvalues --    2.27749   2.28067   2.28298   2.28413   2.28511
 Alpha virt. eigenvalues --    2.28978   2.29343   2.30202   2.30676   2.30956
 Alpha virt. eigenvalues --    2.31537   2.32172   2.32623   2.33034   2.33247
 Alpha virt. eigenvalues --    2.33328   2.33984   2.35198   2.35474   2.35649
 Alpha virt. eigenvalues --    2.36059   2.36397   2.36833   2.37233   2.37520
 Alpha virt. eigenvalues --    2.37715   2.37890   2.38898   2.39147   2.39313
 Alpha virt. eigenvalues --    2.39465   2.39605   2.39690   2.40421   2.40681
 Alpha virt. eigenvalues --    2.41351   2.41496   2.41905   2.42250   2.43037
 Alpha virt. eigenvalues --    2.43523   2.43793   2.44355   2.44996   2.45797
 Alpha virt. eigenvalues --    2.46310   2.47145   2.47777   2.49043   2.49467
 Alpha virt. eigenvalues --    2.49845   2.50217   2.50774   2.51599   2.51754
 Alpha virt. eigenvalues --    2.51862   2.52237   2.53023   2.53600   2.54044
 Alpha virt. eigenvalues --    2.54278   2.55227   2.55512   2.55703   2.56317
 Alpha virt. eigenvalues --    2.56890   2.57733   2.58981   2.58990   2.59658
 Alpha virt. eigenvalues --    2.60508   2.60630   2.60706   2.61052   2.62311
 Alpha virt. eigenvalues --    2.62410   2.63144   2.63304   2.63790   2.64319
 Alpha virt. eigenvalues --    2.64656   2.65182   2.65292   2.65574   2.65793
 Alpha virt. eigenvalues --    2.66814   2.67176   2.67642   2.68539   2.68700
 Alpha virt. eigenvalues --    2.69064   2.70131   2.70695   2.70747   2.71311
 Alpha virt. eigenvalues --    2.71352   2.71417   2.71865   2.72149   2.72595
 Alpha virt. eigenvalues --    2.72810   2.73348   2.73993   2.74102   2.74456
 Alpha virt. eigenvalues --    2.75281   2.75748   2.76087   2.76359   2.77041
 Alpha virt. eigenvalues --    2.77262   2.77414   2.77615   2.77813   2.77841
 Alpha virt. eigenvalues --    2.78806   2.79551   2.79781   2.79824   2.80168
 Alpha virt. eigenvalues --    2.80376   2.80565   2.80643   2.81245   2.81452
 Alpha virt. eigenvalues --    2.81616   2.82230   2.83112   2.83436   2.84158
 Alpha virt. eigenvalues --    2.84444   2.84566   2.84774   2.84943   2.85734
 Alpha virt. eigenvalues --    2.85890   2.86106   2.86319   2.86677   2.86884
 Alpha virt. eigenvalues --    2.87167   2.87738   2.87788   2.87936   2.88274
 Alpha virt. eigenvalues --    2.88591   2.88987   2.89213   2.89852   2.90163
 Alpha virt. eigenvalues --    2.90239   2.90512   2.90997   2.91525   2.91691
 Alpha virt. eigenvalues --    2.92177   2.92775   2.92937   2.93116   2.93512
 Alpha virt. eigenvalues --    2.93648   2.93903   2.93950   2.94567   2.94619
 Alpha virt. eigenvalues --    2.95346   2.95699   2.96043   2.96255   2.96350
 Alpha virt. eigenvalues --    2.96488   2.96800   2.96886   2.97450   2.97804
 Alpha virt. eigenvalues --    2.97995   2.98305   2.98496   2.98625   2.99029
 Alpha virt. eigenvalues --    2.99266   2.99463   2.99720   2.99918   3.00159
 Alpha virt. eigenvalues --    3.00233   3.00438   3.00796   3.01276   3.01348
 Alpha virt. eigenvalues --    3.01381   3.01917   3.02294   3.02376   3.02730
 Alpha virt. eigenvalues --    3.02785   3.02961   3.03161   3.03397   3.03548
 Alpha virt. eigenvalues --    3.03782   3.04133   3.04619   3.04762   3.05019
 Alpha virt. eigenvalues --    3.05419   3.05653   3.06162   3.06349   3.06642
 Alpha virt. eigenvalues --    3.07041   3.07087   3.07550   3.07646   3.08496
 Alpha virt. eigenvalues --    3.08633   3.08804   3.09037   3.09413   3.09725
 Alpha virt. eigenvalues --    3.10232   3.10392   3.10550   3.10592   3.11182
 Alpha virt. eigenvalues --    3.11402   3.12093   3.12649   3.12911   3.13006
 Alpha virt. eigenvalues --    3.13491   3.13566   3.13605   3.13864   3.14145
 Alpha virt. eigenvalues --    3.14564   3.14650   3.15025   3.15149   3.15204
 Alpha virt. eigenvalues --    3.15445   3.15530   3.15912   3.16092   3.16628
 Alpha virt. eigenvalues --    3.17021   3.17208   3.17323   3.17764   3.18110
 Alpha virt. eigenvalues --    3.18303   3.18363   3.18702   3.18807   3.19430
 Alpha virt. eigenvalues --    3.19640   3.20039   3.20041   3.20432   3.20828
 Alpha virt. eigenvalues --    3.21017   3.21430   3.21524   3.21947   3.22104
 Alpha virt. eigenvalues --    3.22537   3.22861   3.23302   3.23355   3.24431
 Alpha virt. eigenvalues --    3.24659   3.24778   3.24827   3.25426   3.25468
 Alpha virt. eigenvalues --    3.25553   3.25723   3.26330   3.26471   3.26728
 Alpha virt. eigenvalues --    3.27305   3.27749   3.27796   3.28531   3.28573
 Alpha virt. eigenvalues --    3.28876   3.29151   3.29656   3.29795   3.30640
 Alpha virt. eigenvalues --    3.31412   3.31667   3.31730   3.32159   3.32445
 Alpha virt. eigenvalues --    3.32567   3.33291   3.33424   3.33688   3.33950
 Alpha virt. eigenvalues --    3.34088   3.34325   3.34748   3.34835   3.35119
 Alpha virt. eigenvalues --    3.35291   3.35532   3.35602   3.35953   3.36145
 Alpha virt. eigenvalues --    3.36640   3.36710   3.37197   3.37449   3.37567
 Alpha virt. eigenvalues --    3.38280   3.38407   3.38813   3.39197   3.39463
 Alpha virt. eigenvalues --    3.39728   3.40356   3.40423   3.40572   3.40816
 Alpha virt. eigenvalues --    3.41514   3.41702   3.41733   3.41977   3.42156
 Alpha virt. eigenvalues --    3.42717   3.43297   3.43587   3.44137   3.44321
 Alpha virt. eigenvalues --    3.44824   3.45426   3.45662   3.45742   3.45830
 Alpha virt. eigenvalues --    3.45989   3.46359   3.46418   3.46757   3.47186
 Alpha virt. eigenvalues --    3.47266   3.47698   3.47955   3.47988   3.48469
 Alpha virt. eigenvalues --    3.48634   3.48851   3.48960   3.49407   3.49764
 Alpha virt. eigenvalues --    3.50245   3.51174   3.51311   3.52049   3.52244
 Alpha virt. eigenvalues --    3.52701   3.52823   3.53440   3.53740   3.53978
 Alpha virt. eigenvalues --    3.54137   3.54682   3.55061   3.55358   3.55908
 Alpha virt. eigenvalues --    3.56219   3.56447   3.56878   3.57431   3.57825
 Alpha virt. eigenvalues --    3.58248   3.58750   3.59686   3.60435   3.60873
 Alpha virt. eigenvalues --    3.61011   3.61338   3.61373   3.61634   3.62453
 Alpha virt. eigenvalues --    3.62795   3.63118   3.63579   3.64050   3.64615
 Alpha virt. eigenvalues --    3.64890   3.65241   3.65874   3.66173   3.66394
 Alpha virt. eigenvalues --    3.67124   3.67328   3.68267   3.69323   3.69486
 Alpha virt. eigenvalues --    3.69778   3.70290   3.70537   3.70941   3.70952
 Alpha virt. eigenvalues --    3.71324   3.71605   3.71855   3.72601   3.72878
 Alpha virt. eigenvalues --    3.73568   3.73803   3.74372   3.74497   3.74558
 Alpha virt. eigenvalues --    3.74732   3.74899   3.75258   3.75970   3.76192
 Alpha virt. eigenvalues --    3.76843   3.77541   3.77681   3.78063   3.78263
 Alpha virt. eigenvalues --    3.78851   3.78992   3.79176   3.79228   3.79381
 Alpha virt. eigenvalues --    3.79617   3.80038   3.80468   3.80597   3.80992
 Alpha virt. eigenvalues --    3.81257   3.81620   3.81809   3.82362   3.83328
 Alpha virt. eigenvalues --    3.83439   3.83775   3.84051   3.84506   3.84790
 Alpha virt. eigenvalues --    3.84935   3.85223   3.85426   3.85816   3.85918
 Alpha virt. eigenvalues --    3.86228   3.86883   3.87469   3.88149   3.88391
 Alpha virt. eigenvalues --    3.88705   3.89080   3.89189   3.89634   3.89786
 Alpha virt. eigenvalues --    3.90850   3.91446   3.92023   3.92215   3.92612
 Alpha virt. eigenvalues --    3.92670   3.93367   3.94320   3.94461   3.94667
 Alpha virt. eigenvalues --    3.95665   3.95893   3.96250   3.96477   3.96601
 Alpha virt. eigenvalues --    3.96980   3.97537   3.97833   3.98010   3.98552
 Alpha virt. eigenvalues --    3.99219   3.99712   4.00239   4.00273   4.00586
 Alpha virt. eigenvalues --    4.01221   4.01604   4.02453   4.03208   4.03709
 Alpha virt. eigenvalues --    4.03874   4.04536   4.04898   4.05092   4.05498
 Alpha virt. eigenvalues --    4.06174   4.06401   4.06703   4.07033   4.07420
 Alpha virt. eigenvalues --    4.07755   4.08551   4.08560   4.09145   4.09248
 Alpha virt. eigenvalues --    4.09757   4.10004   4.10517   4.10832   4.10953
 Alpha virt. eigenvalues --    4.11631   4.11680   4.12558   4.12772   4.13133
 Alpha virt. eigenvalues --    4.13612   4.14024   4.14209   4.15026   4.15840
 Alpha virt. eigenvalues --    4.16707   4.16924   4.17353   4.17701   4.17997
 Alpha virt. eigenvalues --    4.18581   4.18611   4.18727   4.19680   4.20298
 Alpha virt. eigenvalues --    4.20790   4.21073   4.21218   4.21553   4.22023
 Alpha virt. eigenvalues --    4.22523   4.22587   4.22796   4.23351   4.23531
 Alpha virt. eigenvalues --    4.23609   4.23832   4.24322   4.24519   4.24671
 Alpha virt. eigenvalues --    4.25100   4.25352   4.26149   4.26901   4.27927
 Alpha virt. eigenvalues --    4.28018   4.28187   4.28602   4.28659   4.28913
 Alpha virt. eigenvalues --    4.29181   4.29394   4.29880   4.30017   4.30630
 Alpha virt. eigenvalues --    4.30790   4.30999   4.31534   4.31551   4.32377
 Alpha virt. eigenvalues --    4.32566   4.33146   4.33556   4.34728   4.34982
 Alpha virt. eigenvalues --    4.35782   4.36352   4.36597   4.37325   4.37654
 Alpha virt. eigenvalues --    4.38326   4.38892   4.39445   4.40158   4.41211
 Alpha virt. eigenvalues --    4.41571   4.42022   4.42775   4.44012   4.44055
 Alpha virt. eigenvalues --    4.44221   4.45377   4.45622   4.45823   4.46289
 Alpha virt. eigenvalues --    4.46975   4.47537   4.47784   4.48992   4.49334
 Alpha virt. eigenvalues --    4.49716   4.50318   4.51200   4.51656   4.53014
 Alpha virt. eigenvalues --    4.54038   4.54128   4.54872   4.55040   4.55132
 Alpha virt. eigenvalues --    4.55314   4.56470   4.56532   4.57312   4.59152
 Alpha virt. eigenvalues --    4.60548   4.61989   4.62196   4.62958   4.63478
 Alpha virt. eigenvalues --    4.63852   4.64126   4.64564   4.64858   4.64969
 Alpha virt. eigenvalues --    4.65237   4.65896   4.66223   4.67291   4.67559
 Alpha virt. eigenvalues --    4.68197   4.69120   4.69297   4.70181   4.71067
 Alpha virt. eigenvalues --    4.71283   4.71439   4.72586   4.73905   4.74681
 Alpha virt. eigenvalues --    4.74990   4.75307   4.75606   4.75880   4.76611
 Alpha virt. eigenvalues --    4.76892   4.78884   4.78976   4.79254   4.79456
 Alpha virt. eigenvalues --    4.80154   4.81445   4.81846   4.83223   4.83482
 Alpha virt. eigenvalues --    4.85187   4.85879   4.86033   4.87880   4.88287
 Alpha virt. eigenvalues --    4.89113   4.90845   4.90942   4.91530   4.91557
 Alpha virt. eigenvalues --    4.92117   4.93214   4.93486   4.93913   4.96701
 Alpha virt. eigenvalues --    4.97732   4.99200   4.99256   5.00010   5.00271
 Alpha virt. eigenvalues --    5.00765   5.01957   5.02850   5.02987   5.03462
 Alpha virt. eigenvalues --    5.05737   5.06377   5.07452   5.08695   5.09381
 Alpha virt. eigenvalues --    5.09755   5.09860   5.10086   5.11304   5.11462
 Alpha virt. eigenvalues --    5.12417   5.12830   5.13451   5.14320   5.14538
 Alpha virt. eigenvalues --    5.14798   5.14894   5.15273   5.15362   5.16220
 Alpha virt. eigenvalues --    5.16298   5.16666   5.16717   5.16849   5.18041
 Alpha virt. eigenvalues --    5.18133   5.18270   5.19656   5.20085   5.20599
 Alpha virt. eigenvalues --    5.21485   5.21755   5.22667   5.23564   5.23836
 Alpha virt. eigenvalues --    5.24275   5.25620   5.26091   5.26189   5.26624
 Alpha virt. eigenvalues --    5.27939   5.28164   5.29590   5.29728   5.29877
 Alpha virt. eigenvalues --    5.29957   5.30201   5.30908   5.31310   5.32166
 Alpha virt. eigenvalues --    5.32377   5.32510   5.32544   5.32620   5.33129
 Alpha virt. eigenvalues --    5.33866   5.34314   5.35649   5.35900   5.36153
 Alpha virt. eigenvalues --    5.37211   5.38236   5.39839   5.41157   5.43063
 Alpha virt. eigenvalues --    5.44384   5.45089   5.47281   5.47555   5.48794
 Alpha virt. eigenvalues --    5.49553   5.50190   5.50218   5.50475   5.52075
 Alpha virt. eigenvalues --    5.53447   5.54500   5.56102   5.56232   5.57484
 Alpha virt. eigenvalues --    5.57942   5.58054   5.58594   5.59075   5.59140
 Alpha virt. eigenvalues --    5.59866   5.61351   5.61891   5.62181   5.62881
 Alpha virt. eigenvalues --    5.63634   5.63996   5.65271   5.68423   5.69094
 Alpha virt. eigenvalues --    5.70253   5.71511   5.73859   5.74048   5.75157
 Alpha virt. eigenvalues --    5.76378   5.79465   5.80678   5.81005   5.81174
 Alpha virt. eigenvalues --    5.84624   5.86172   5.87262   5.89087   5.90652
 Alpha virt. eigenvalues --    5.94555   5.94988   5.96926   5.99598   6.01202
 Alpha virt. eigenvalues --    6.01686   6.05227   6.06268   6.10842   6.11927
 Alpha virt. eigenvalues --    6.14411   6.14976   6.22270   6.23934   6.29752
 Alpha virt. eigenvalues --    6.33603   6.33740   6.36829   6.38419   6.46356
 Alpha virt. eigenvalues --    6.47259   6.50616   6.53954   6.56004   6.56054
 Alpha virt. eigenvalues --    6.68609   6.70151   6.71014   6.71469   6.72785
 Alpha virt. eigenvalues --    6.75232   6.78274   6.78306   6.78426   6.78969
 Alpha virt. eigenvalues --    6.80097   6.80494   6.82126   6.82157   6.82528
 Alpha virt. eigenvalues --    6.82560   6.83381   6.83412   6.84077   6.84110
 Alpha virt. eigenvalues --    6.84538   6.84574   6.85301   6.85326   6.86048
 Alpha virt. eigenvalues --    6.86077   6.86562   6.86598   6.90893   6.94574
 Alpha virt. eigenvalues --    6.96719   6.96752   6.96993   6.97039   6.98979
 Alpha virt. eigenvalues --    7.00138   7.00533   7.00587   7.01057   7.01710
 Alpha virt. eigenvalues --    7.04498   7.04538   7.08747   7.08791   7.12817
 Alpha virt. eigenvalues --    7.12853   7.15923   7.18806   7.35880   7.35903
 Alpha virt. eigenvalues --    7.35946   7.36006   7.43313   7.43350   7.46157
 Alpha virt. eigenvalues --    7.48303   7.48324   7.50694   7.58587   7.58631
 Alpha virt. eigenvalues --    7.62395   7.62438   7.77167   7.78242   7.85386
 Alpha virt. eigenvalues --    7.90621   8.26284   8.26319   8.29593   8.29634
 Alpha virt. eigenvalues --    8.30846   8.30876   8.44606   8.44644   8.48728
 Alpha virt. eigenvalues --    8.48789   8.57254   8.57334   8.67019   8.67054
 Alpha virt. eigenvalues --    8.74735   8.74768   8.78356   8.78390   8.88458
 Alpha virt. eigenvalues --    8.88508   8.94324   8.94363   8.97702   8.97739
 Alpha virt. eigenvalues --    8.99696   8.99741   9.09050   9.09106   9.16843
 Alpha virt. eigenvalues --    9.16904   9.39276   9.43148   9.64525   9.69374
 Alpha virt. eigenvalues --   10.15273  10.18152  22.51506  22.62126  22.64863
 Alpha virt. eigenvalues --   22.65990  22.86887  22.87404  22.88320  22.88623
 Alpha virt. eigenvalues --   22.98867  23.00729  23.04889  23.07057  23.08163
 Alpha virt. eigenvalues --   23.08212  23.09386  23.12897  23.14252  23.17888
 Alpha virt. eigenvalues --   23.19214  23.19975  23.20581  23.20942  23.23875
 Alpha virt. eigenvalues --   23.24009  23.24790  23.25956  23.29369  23.32508
 Alpha virt. eigenvalues --   23.39132  23.41989  23.54358  23.60293  23.79058
 Alpha virt. eigenvalues --   23.80030  24.11760  24.15378  24.21165  24.25619
 Alpha virt. eigenvalues --   24.31269  24.34465  32.57791  43.79982  43.84913
 Alpha virt. eigenvalues --   44.03456  44.09781  57.09721  57.09777  57.22643
 Alpha virt. eigenvalues --   57.22664  57.51879  57.52003
          Condensed to atoms (all electrons):
 Mulliken charges:
               1
     1  C   -0.129244
     2  C   -0.188740
     3  C   -0.022712
     4  C   -0.048248
     5  C   -0.125622
     6  C   -0.128970
     7  H    0.158757
     8  H    0.164491
     9  C    0.055925
    10  C   -0.071165
    11  H    0.151869
    12  H    0.158352
    13  C   -0.050285
    14  C   -0.063494
    15  H    0.149360
    16  C    0.045657
    17  C   -0.074667
    18  C   -0.024337
    19  C   -0.059979
    20  C   -0.042531
    21  C   -0.187175
    22  C   -0.071149
    23  C   -0.128284
    24  C   -0.130375
    25  H    0.163328
    26  H    0.149485
    27  C   -0.129011
    28  H    0.151596
    29  H    0.158577
    30  H    0.157964
    31  S    0.831489
    32  O   -0.428558
    33  O   -0.449145
    34  S    0.837040
    35  O   -0.421307
    36  O   -0.453708
    37  N   -0.228150
    38  C    0.053551
    39  C    0.139313
    40  C    0.055472
    41  C    0.142454
    42  C   -0.083965
    43  C   -0.145761
    44  C   -0.173598
    45  C   -0.105009
    46  C   -0.133351
    47  H    0.161197
    48  C   -0.131901
    49  H    0.161400
    50  H    0.159903
    51  H    0.161137
    52  C   -0.082348
    53  C   -0.172833
    54  C   -0.145896
    55  C   -0.133176
    56  H    0.161047
    57  C   -0.105125
    58  C   -0.131920
    59  H    0.159757
    60  H    0.161455
    61  H    0.161072
    62  C    0.572134
    63  F   -0.184064
    64  F   -0.194003
    65  F   -0.191878
    66  C    0.572519
    67  F   -0.183985
    68  F   -0.193386
    69  F   -0.192831
    70  H    0.185589
 Sum of Mulliken charges =   0.00000
 Mulliken charges with hydrogens summed into heavy atoms:
               1
     1  C    0.029513
     2  C   -0.024249
     3  C   -0.022712
     4  C   -0.048248
     5  C    0.026247
     6  C    0.029382
     9  C    0.055925
    10  C    0.078195
    13  C   -0.050285
    14  C   -0.063494
    16  C    0.045657
    17  C   -0.074667
    18  C   -0.024337
    19  C   -0.059979
    20  C   -0.042531
    21  C   -0.023847
    22  C    0.078335
    23  C    0.023311
    24  C    0.028202
    27  C    0.028952
    31  S    0.831489
    32  O   -0.428558
    33  O   -0.449145
    34  S    0.837040
    35  O   -0.421307
    36  O   -0.453708
    37  N   -0.042561
    38  C    0.053551
    39  C    0.139313
    40  C    0.055472
    41  C    0.142454
    42  C   -0.083965
    43  C   -0.145761
    44  C   -0.012401
    45  C    0.056391
    46  C    0.026553
    48  C    0.029236
    52  C   -0.082348
    53  C   -0.011786
    54  C   -0.145896
    55  C    0.026581
    57  C    0.056330
    58  C    0.029151
    62  C    0.572134
    63  F   -0.184064
    64  F   -0.194003
    65  F   -0.191878
    66  C    0.572519
    67  F   -0.183985
    68  F   -0.193386
    69  F   -0.192831
 Electronic spatial extent (au):  <R**2>=          49514.7553
 Charge=              0.0000 electrons
 Dipole moment (field-independent basis, Debye):
    X=             -1.1200    Y=              1.5410    Z=              0.5264  Tot=              1.9764
 Quadrupole moment (field-independent basis, Debye-Ang):
   XX=           -258.0709   YY=           -240.5200   ZZ=           -300.6839
   XY=            -13.5085   XZ=              8.1470   YZ=             13.8464
 Traceless Quadrupole moment (field-independent basis, Debye-Ang):
   XX=              8.3540   YY=             25.9050   ZZ=            -34.2590
   XY=            -13.5085   XZ=              8.1470   YZ=             13.8464
 Octapole moment (field-independent basis, Debye-Ang**2):
  XXX=           1452.3462  YYY=          -1258.2897  ZZZ=           -166.9422  XYY=            123.3338
  XXY=           -561.2011  XXZ=             -3.1287  XZZ=            363.3560  YZZ=           -465.8485
  YYZ=           -137.2629  XYZ=           -131.8319
 Hexadecapole moment (field-independent basis, Debye-Ang**3):
 XXXX=         -38073.0648 YYYY=         -17419.9631 ZZZZ=          -4261.8474 XXXY=          -3091.9727
 XXXZ=            179.7455 YYYX=          -3845.6801 YYYZ=          -1241.4827 ZZZX=           -767.0718
 ZZZY=           -978.0367 XXYY=          -8947.3217 XXZZ=          -7156.1328 YYZZ=          -3462.4027
 XXYZ=            432.3039 YYXZ=             45.4602 ZZXY=          -1414.2575
 N-N= 6.992366592681D+03 E-N=-2.153209395351D+04  KE= 3.198749587919D+03
 No NMR shielding tensors so no spin-rotation constants.
 Leave Link  601 at Tue Jun 11 20:08:47 2024, MaxMem=  8589934592 cpu:              31.3 elap:               1.3
 (Enter /opt/packages/gaussian/g16RevC.01/g16/l9999.exe)
 Unable to Open any file for archive entry.
 1\1\GINC-R364\SP\RB3LYP\def2TZVPP\C38H19F6N1O4S2\BIM2\11-Jun-2024\0\\#
 p b3lyp def2tzvpp scf=maxcycle=128 nosymm scrf=(smd,solvent=propyletha
 noate) empiricaldispersion=gd3bj\\Title Card Required\\0,1\C,0,-2.5651
 2,6.274222,-1.542114\C,0,-2.580134,5.081789,-0.859193\C,0,-1.3637,4.47
 6879,-0.435495\C,0,-0.134174,5.11996,-0.757334\C,0,-0.150803,6.358541,
 -1.456375\C,0,-1.341295,6.92499,-1.837031\H,0,-3.505604,6.722693,-1.86
 5157\H,0,-3.531372,4.591991,-0.650772\C,0,-1.329232,3.235015,0.280224\
 C,0,1.089652,4.511066,-0.396655\H,0,0.801093,6.839671,-1.688171\H,0,-1
 .349999,7.872942,-2.376941\C,0,1.132764,3.288536,0.247312\C,0,-0.10842
 6,2.658503,0.587679\H,0,2.027604,5.010108,-0.646466\C,0,-2.640074,2.59
 5183,0.635351\C,0,-3.078811,1.430149,0.03039\C,0,-3.448468,3.221037,1.
 639179\C,0,-4.350339,0.850455,0.345349\C,0,-4.722027,2.660617,1.943983
 \C,0,-3.018745,4.369692,2.360598\C,0,-5.148294,1.489653,1.276762\C,0,-
 5.543517,3.277356,2.927922\C,0,-3.829694,4.938123,3.313419\H,0,-2.0346
 64,4.796295,2.165169\H,0,-6.127784,1.068535,1.510574\C,0,-5.10789,4.39
 4371,3.595307\H,0,-6.519157,2.837916,3.142783\H,0,-3.484215,5.815292,3
 .862313\H,0,-5.73911,4.862659,4.351946\S,0,-0.139931,1.046023,1.313343
 \O,0,-1.092287,1.033098,2.36875\O,0,1.156792,0.52781,1.562177\S,0,-1.9
 34136,0.60911,-1.047327\O,0,-1.425182,1.560387,-1.967307\O,0,-2.44085,
 -0.630692,-1.515324\N,0,-0.711135,0.17246,0.00489\C,0,2.431279,2.75794
 7,0.53692\C,0,3.586621,2.43515,0.716921\C,0,-4.881771,-0.338378,-0.251
 484\C,0,-5.455802,-1.3192,-0.67578\C,0,-6.117951,-2.483047,-1.184298\C
 ,0,-7.411333,-2.838099,-0.748192\C,0,-5.475966,-3.292519,-2.13304\C,0,
 -8.037982,-3.973234,-1.25137\C,0,-6.10933,-4.427227,-2.632847\H,0,-4.4
 75924,-3.016141,-2.468871\C,0,-7.387318,-4.769421,-2.194654\H,0,-9.037
 725,-4.236199,-0.905534\H,0,-5.598984,-5.048001,-3.370652\H,0,-7.88352
 6,-5.658303,-2.585986\C,0,4.945557,2.036541,0.931094\C,0,5.223901,0.82
 7132,1.584714\C,0,6.020095,2.838333,0.493403\C,0,6.541291,0.429214,1.7
 95949\H,0,4.391749,0.208123,1.921651\C,0,7.333706,2.434655,0.707516\C,
 0,7.595846,1.229075,1.359397\H,0,6.743943,-0.513821,2.305707\H,0,8.154
 833,3.063694,0.363519\H,0,8.627868,0.917333,1.52439\C,0,5.733945,4.140
 732,-0.20953\F,0,6.853742,4.771786,-0.565666\F,0,5.03854,4.983325,0.56
 291\F,0,5.014503,3.961293,-1.32254\C,0,-8.113165,-1.97569,0.269724\F,0
 ,-9.323507,-2.447011,0.572569\F,0,-8.278864,-0.721925,-0.166452\F,0,-7
 .426631,-1.893895,1.414937\H,0,-0.660125,-0.839454,0.155031\\Version=E
 S64L-G16RevC.01\HF=-3211.6896734\RMSD=3.519e-09\Dipole=-0.4406318,0.60
 62864,0.2071122\Quadrupole=6.2109996,19.2597068,-25.4707065,-10.043216
 8,6.0570995,10.2944229\PG=C01 [X(C38H19F6N1O4S2)]\\@
 The archive entry for this job was punched.


 OUR LITTLE SYSTEMS HAVE THEIR DAY,    
   THEY HAVE THEIR DAY AND CEASE TO BE.
   THEY ARE BUT BROKEN LIGHTS OF THEE, 
 AND THOU, OH LORD, ART MORE THAN THEY.
          -------------------          
 LET KNOWLEDGE GROW FROM MORE TO MORE, 
   BUT MORE OF REVERENCE IN US DWELL.  
   THAT MIND AND SOUL, ACCORDING WELL, 
 MAY MAKE ONE MUSIC AS BEFORE.....     
          -------------------          
                    LORD TENNYSON      
 Job cpu time:       0 days 11 hours 39 minutes 21.3 seconds.
 Elapsed time:       0 days  0 hours 22 minutes  9.3 seconds.
 File lengths (MBytes):  RWF=   2327 Int=      0 D2E=      0 Chk=    204 Scr=      1
 Normal termination of Gaussian 16 at Tue Jun 11 20:08:47 2024.
