 Entering Gaussian System, Link 0=/cm/shared/apps/spack/cpu/opt/spack/linux-centos8-zen/gcc-8.3.1/gaussian-16.C.01-po5bqktfeugvmjyga3v7eigbecnokxng/g16/g16
 Initial command:
 /cm/shared/apps/spack/cpu/opt/spack/linux-centos8-zen/gcc-8.3.1/gaussian-16.C.01-po5bqktfeugvmjyga3v7eigbecnokxng/g16/l1.exe "/scratch/bim12/job_39387575/Gau-385654.inp" -scrdir="/scratch/bim12/job_39387575/"
 Entering Link 1 = /cm/shared/apps/spack/cpu/opt/spack/linux-centos8-zen/gcc-8.3.1/gaussian-16.C.01-po5bqktfeugvmjyga3v7eigbecnokxng/g16/l1.exe PID=    385655.
  
 Copyright (c) 1988-2019, Gaussian, Inc.  All Rights Reserved.
  
 This is part of the Gaussian(R) 16 program.  It is based on
 the Gaussian(R) 09 system (copyright 2009, Gaussian, Inc.),
 the Gaussian(R) 03 system (copyright 2003, Gaussian, Inc.),
 the Gaussian(R) 98 system (copyright 1998, Gaussian, Inc.),
 the Gaussian(R) 94 system (copyright 1995, Gaussian, Inc.),
 the Gaussian 92(TM) system (copyright 1992, Gaussian, Inc.),
 the Gaussian 90(TM) system (copyright 1990, Gaussian, Inc.),
 the Gaussian 88(TM) system (copyright 1988, Gaussian, Inc.),
 the Gaussian 86(TM) system (copyright 1986, Carnegie Mellon
 University), and the Gaussian 82(TM) system (copyright 1983,
 Carnegie Mellon University). Gaussian is a federally registered
 trademark of Gaussian, Inc.
  
 This software contains proprietary and confidential information,
 including trade secrets, belonging to Gaussian, Inc.
  
 This software is provided under written license and may be
 used, copied, transmitted, or stored only in accord with that
 written license.
  
 The following legend is applicable only to US Government
 contracts under FAR:
  
                    RESTRICTED RIGHTS LEGEND
  
 Use, reproduction and disclosure by the US Government is
 subject to restrictions as set forth in subparagraphs (a)
 and (c) of the Commercial Computer Software - Restricted
 Rights clause in FAR 52.227-19.
  
 Gaussian, Inc.
 340 Quinnipiac St., Bldg. 40, Wallingford CT 06492
  
  
 ---------------------------------------------------------------
 Warning -- This program may not be used in any manner that
 competes with the business of Gaussian, Inc. or will provide
 assistance to any competitor of Gaussian, Inc.  The licensee
 of this program is prohibited from giving any competitor of
 Gaussian, Inc. access to this program.  By using this program,
 the user acknowledges that Gaussian, Inc. is engaged in the
 business of creating and licensing software in the field of
 computational chemistry and represents and warrants to the
 licensee that it is not a competitor of Gaussian, Inc. and that
 it will not use this program in any manner prohibited above.
 ---------------------------------------------------------------
  

 Cite this work as:
 Gaussian 16, Revision C.01,
 M. J. Frisch, G. W. Trucks, H. B. Schlegel, G. E. Scuseria, 
 M. A. Robb, J. R. Cheeseman, G. Scalmani, V. Barone, 
 G. A. Petersson, H. Nakatsuji, X. Li, M. Caricato, A. V. Marenich, 
 J. Bloino, B. G. Janesko, R. Gomperts, B. Mennucci, H. P. Hratchian, 
 J. V. Ortiz, A. F. Izmaylov, J. L. Sonnenberg, D. Williams-Young, 
 F. Ding, F. Lipparini, F. Egidi, J. Goings, B. Peng, A. Petrone, 
 T. Henderson, D. Ranasinghe, V. G. Zakrzewski, J. Gao, N. Rega, 
 G. Zheng, W. Liang, M. Hada, M. Ehara, K. Toyota, R. Fukuda, 
 J. Hasegawa, M. Ishida, T. Nakajima, Y. Honda, O. Kitao, H. Nakai, 
 T. Vreven, K. Throssell, J. A. Montgomery, Jr., J. E. Peralta, 
 F. Ogliaro, M. J. Bearpark, J. J. Heyd, E. N. Brothers, K. N. Kudin, 
 V. N. Staroverov, T. A. Keith, R. Kobayashi, J. Normand, 
 K. Raghavachari, A. P. Rendell, J. C. Burant, S. S. Iyengar, 
 J. Tomasi, M. Cossi, J. M. Millam, M. Klene, C. Adamo, R. Cammi, 
 J. W. Ochterski, R. L. Martin, K. Morokuma, O. Farkas, 
 J. B. Foresman, and D. J. Fox, Gaussian, Inc., Wallingford CT, 2019.
 
 ******************************************
 Gaussian 16:  ES64L-G16RevC.01  3-Jul-2019
                15-May-2025 
 ******************************************
 %nprocshared=32
 Will use up to   32 processors via shared memory.
 %mem=62GB
 ----------------------------------------------------------------------
 #p b3lyp def2tzvpp scf=maxcycle=128 nosymm scrf=(smd,solvent=propyleth
 anoate) empiricaldispersion=gd3bj
 ----------------------------------------------------------------------
 1/38=1,172=1/1;
 2/12=2,15=1,17=6,18=5,40=1/2;
 3/5=44,7=202,11=2,25=1,30=1,70=32201,72=169,74=-5,124=41/1,2,3;
 4//1;
 5/5=2,7=128,38=5,53=169/2;
 6/7=2,8=2,9=2,10=2,28=1/1;
 99/5=1,9=1/99;
 Leave Link    1 at Thu May 15 11:45:38 2025, MaxMem=  8321499136 cpu:               0.7 elap:               0.1
 (Enter /cm/shared/apps/spack/cpu/opt/spack/linux-centos8-zen/gcc-8.3.1/gaussian-16.C.01-po5bqktfeugvmjyga3v7eigbecnokxng/g16/l101.exe)
 -------------------
 Title Card Required
 -------------------
 Symbolic Z-matrix:
 Charge =  0 Multiplicity = 1
 C                    -2.54092   6.41792  -1.46108 
 C                    -2.5779    5.21923  -0.79259 
 C                    -1.37201   4.54702  -0.43882 
 C                    -0.12697   5.1296   -0.82464 
 C                    -0.12388   6.37699  -1.50807 
 C                    -1.30225   7.00976  -1.81471 
 H                    -3.47335   6.91764  -1.72767 
 H                    -3.53882   4.77172  -0.53797 
 C                    -1.37066   3.29777   0.26182 
 C                     1.08851   4.44951  -0.5461 
 H                     0.83637   6.81359  -1.78916 
 H                    -1.29098   7.96478  -2.34222 
 C                     1.08056   3.23081   0.07875 
 C                    -0.15533   2.67266   0.48237 
 H                     2.03133   4.90606  -0.85201 
 C                    -2.65906   2.65496   0.65722 
 C                    -3.04699   1.44264   0.11334 
 C                    -3.50203   3.25734   1.64592 
 C                    -4.25676   0.79767   0.46394 
 C                    -4.73502   2.62422   1.98692 
 C                    -3.13818   4.4549    2.32636 
 C                    -5.09269   1.39541   1.37023 
 C                    -5.57933   3.22521   2.96107 
 C                    -3.97109   5.00403   3.26994 
 H                    -2.18412   4.93288   2.10227 
 H                    -6.03865   0.92365   1.64184 
 C                    -5.20922   4.38992   3.58532 
 H                    -6.52273   2.73372   3.20608 
 H                    -3.6753    5.91845   3.78624 
 H                    -5.86113   4.84204   4.33434 
 S                    -0.08499   1.09825   1.27063 
 O                    -0.94158   1.07199   2.40557 
 O                     1.27323   0.70759   1.42571 
 S                    -1.96153   0.57221  -0.97313 
 O                    -1.39472   1.45892  -1.92487 
 O                    -2.59622  -0.62148  -1.41103 
 N                    -0.72403   0.0794    0.07402 
 H                    -4.50755  -0.15541  0. 
 H                     2.0028    2.68822   0.28156 
 I                    -0.54038  -1.91198   0.54038 
 
 ITRead=  0  0  0  0  0  0  0  0  0  0  0  0  0  0  0  0  0  0  0  0
 ITRead=  0  0  0  0  0  0  0  0  0  0  0  0  0  0  0  0  0  0  0  0
 MicOpt= -1 -1 -1 -1 -1 -1 -1 -1 -1 -1 -1 -1 -1 -1 -1 -1 -1 -1 -1 -1
 MicOpt= -1 -1 -1 -1 -1 -1 -1 -1 -1 -1 -1 -1 -1 -1 -1 -1 -1 -1 -1 -1
 NAtoms=     40 NQM=       40 NQMF=       0 NMMI=      0 NMMIF=      0
                NMic=       0 NMicF=      0.
                    Isotopes and Nuclear Properties:
 (Nuclear quadrupole moments (NQMom) in fm**2, nuclear magnetic moments (NMagM)
  in nuclear magnetons)

  Atom         1           2           3           4           5           6           7           8           9          10
 IAtWgt=          12          12          12          12          12          12           1           1          12          12
 AtmWgt=  12.0000000  12.0000000  12.0000000  12.0000000  12.0000000  12.0000000   1.0078250   1.0078250  12.0000000  12.0000000
 NucSpn=           0           0           0           0           0           0           1           1           0           0
 AtZEff=  -0.0000000  -0.0000000  -0.0000000  -0.0000000  -0.0000000  -0.0000000  -0.0000000  -0.0000000  -0.0000000  -0.0000000
 NQMom=    0.0000000   0.0000000   0.0000000   0.0000000   0.0000000   0.0000000   0.0000000   0.0000000   0.0000000   0.0000000
 NMagM=    0.0000000   0.0000000   0.0000000   0.0000000   0.0000000   0.0000000   2.7928460   2.7928460   0.0000000   0.0000000
 AtZNuc=   6.0000000   6.0000000   6.0000000   6.0000000   6.0000000   6.0000000   1.0000000   1.0000000   6.0000000   6.0000000

  Atom        11          12          13          14          15          16          17          18          19          20
 IAtWgt=           1           1          12          12           1          12          12          12          12          12
 AtmWgt=   1.0078250   1.0078250  12.0000000  12.0000000   1.0078250  12.0000000  12.0000000  12.0000000  12.0000000  12.0000000
 NucSpn=           1           1           0           0           1           0           0           0           0           0
 AtZEff=  -0.0000000  -0.0000000  -0.0000000  -0.0000000  -0.0000000  -0.0000000  -0.0000000  -0.0000000  -0.0000000  -0.0000000
 NQMom=    0.0000000   0.0000000   0.0000000   0.0000000   0.0000000   0.0000000   0.0000000   0.0000000   0.0000000   0.0000000
 NMagM=    2.7928460   2.7928460   0.0000000   0.0000000   2.7928460   0.0000000   0.0000000   0.0000000   0.0000000   0.0000000
 AtZNuc=   1.0000000   1.0000000   6.0000000   6.0000000   1.0000000   6.0000000   6.0000000   6.0000000   6.0000000   6.0000000

  Atom        21          22          23          24          25          26          27          28          29          30
 IAtWgt=          12          12          12          12           1           1          12           1           1           1
 AtmWgt=  12.0000000  12.0000000  12.0000000  12.0000000   1.0078250   1.0078250  12.0000000   1.0078250   1.0078250   1.0078250
 NucSpn=           0           0           0           0           1           1           0           1           1           1
 AtZEff=  -0.0000000  -0.0000000  -0.0000000  -0.0000000  -0.0000000  -0.0000000  -0.0000000  -0.0000000  -0.0000000  -0.0000000
 NQMom=    0.0000000   0.0000000   0.0000000   0.0000000   0.0000000   0.0000000   0.0000000   0.0000000   0.0000000   0.0000000
 NMagM=    0.0000000   0.0000000   0.0000000   0.0000000   2.7928460   2.7928460   0.0000000   2.7928460   2.7928460   2.7928460
 AtZNuc=   6.0000000   6.0000000   6.0000000   6.0000000   1.0000000   1.0000000   6.0000000   1.0000000   1.0000000   1.0000000

  Atom        31          32          33          34          35          36          37          38          39          40
 IAtWgt=          32          16          16          32          16          16          14           1           1         127
 AtmWgt=  31.9720718  15.9949146  15.9949146  31.9720718  15.9949146  15.9949146  14.0030740   1.0078250   1.0078250 126.9004000
 NucSpn=           0           0           0           0           0           0           2           1           1           5
 AtZEff=  -0.0000000  -0.0000000  -0.0000000  -0.0000000  -0.0000000  -0.0000000  -0.0000000  -0.0000000  -0.0000000  -0.0000000
 NQMom=    0.0000000   0.0000000   0.0000000   0.0000000   0.0000000   0.0000000   2.0440000   0.0000000   0.0000000 -71.0000000
 NMagM=    0.0000000   0.0000000   0.0000000   0.0000000   0.0000000   0.0000000   0.4037610   2.7928460   2.7928460   2.8132800
 AtZNuc=  16.0000000   8.0000000   8.0000000  16.0000000   8.0000000   8.0000000   7.0000000   1.0000000   1.0000000  53.0000000
 Leave Link  101 at Thu May 15 11:45:38 2025, MaxMem=  8321499136 cpu:               1.2 elap:               0.0
 (Enter /cm/shared/apps/spack/cpu/opt/spack/linux-centos8-zen/gcc-8.3.1/gaussian-16.C.01-po5bqktfeugvmjyga3v7eigbecnokxng/g16/l202.exe)
                          Input orientation:                          
 ---------------------------------------------------------------------
 Center     Atomic      Atomic             Coordinates (Angstroms)
 Number     Number       Type             X           Y           Z
 ---------------------------------------------------------------------
      1          6           0       -2.540923    6.417921   -1.461079
      2          6           0       -2.577899    5.219228   -0.792588
      3          6           0       -1.372005    4.547021   -0.438821
      4          6           0       -0.126968    5.129598   -0.824638
      5          6           0       -0.123878    6.376991   -1.508070
      6          6           0       -1.302247    7.009763   -1.814713
      7          1           0       -3.473347    6.917638   -1.727665
      8          1           0       -3.538815    4.771720   -0.537971
      9          6           0       -1.370655    3.297770    0.261822
     10          6           0        1.088510    4.449511   -0.546095
     11          1           0        0.836367    6.813589   -1.789157
     12          1           0       -1.290976    7.964778   -2.342219
     13          6           0        1.080556    3.230814    0.078748
     14          6           0       -0.155334    2.672663    0.482373
     15          1           0        2.031335    4.906064   -0.852005
     16          6           0       -2.659056    2.654958    0.657215
     17          6           0       -3.046991    1.442639    0.113337
     18          6           0       -3.502025    3.257342    1.645917
     19          6           0       -4.256755    0.797672    0.463942
     20          6           0       -4.735024    2.624217    1.986922
     21          6           0       -3.138177    4.454898    2.326360
     22          6           0       -5.092694    1.395405    1.370230
     23          6           0       -5.579330    3.225209    2.961068
     24          6           0       -3.971091    5.004027    3.269939
     25          1           0       -2.184116    4.932877    2.102265
     26          1           0       -6.038649    0.923651    1.641844
     27          6           0       -5.209215    4.389922    3.585317
     28          1           0       -6.522733    2.733722    3.206081
     29          1           0       -3.675303    5.918449    3.786240
     30          1           0       -5.861129    4.842043    4.334344
     31         16           0       -0.084989    1.098255    1.270628
     32          8           0       -0.941581    1.071992    2.405567
     33          8           0        1.273225    0.707587    1.425707
     34         16           0       -1.961525    0.572210   -0.973133
     35          8           0       -1.394724    1.458917   -1.924866
     36          8           0       -2.596224   -0.621484   -1.411031
     37          7           0       -0.724027    0.079401    0.074017
     38          1           0       -4.507551   -0.155410   -0.000002
     39          1           0        2.002801    2.688220    0.281559
     40         53           0       -0.540381   -1.911982    0.540376
 ---------------------------------------------------------------------
                    Distance matrix (angstroms):
                    1          2          3          4          5
     1  C    0.000000
     2  C    1.372994   0.000000
     3  C    2.431388   1.425200   0.000000
     4  C    2.809273   2.452779   1.427714   0.000000
     5  C    2.417848   2.806163   2.459655   1.422350   0.000000
     6  C    1.417622   2.424468   2.821886   2.428281   1.372219
     7  H    1.090963   2.135601   3.420027   3.900102   3.399921
     8  H    2.134923   1.090162   2.180685   3.442522   3.896124
     9  C    3.751434   2.502243   1.432316   2.466322   3.764116
    10  C    4.229021   3.754434   2.464782   1.420384   2.471934
    11  H    3.416179   3.897736   3.440588   2.166596   1.091649
    12  H    2.175211   3.405227   3.912870   3.419973   2.139857
    13  C    5.063974   4.254093   2.831137   2.424789   3.723853
    14  C    4.847164   3.738896   2.417045   2.783094   4.205342
    15  H    4.854094   4.620242   3.447079   2.170020   2.690537
    16  C    4.319840   2.946862   2.537262   3.838125   4.996911
    17  C    5.242931   3.911952   3.570384   4.795831   5.959982
    18  C    4.535019   3.263328   3.247521   4.582575   5.575995
    19  C    6.183606   4.893627   4.816055   6.122186   7.217915
    20  C    5.576287   4.371836   4.570700   5.951133   6.896445
    21  C    4.307536   3.259747   3.282389   4.410373   5.242451
    22  C    6.305039   5.061976   5.200853   6.589391   7.601970
    23  C    6.243453   5.203329   5.568484   6.905543   7.724563
    24  C    5.140721   4.300165   4.551813   5.617705   6.286131
    25  H    3.876866   2.935513   2.695464   3.582920   4.400519
    26  H    7.214515   6.029530   6.263828   7.662995   8.639756
    27  C    6.057943   5.174710   5.562603   6.769347   7.466705
    28  H    7.156152   6.142378   6.565315   7.930494   8.743110
    29  H    5.391720   4.760134   5.003712   5.871385   6.391604
    30  H    6.862513   6.099779   6.559144   7.718704   8.331021
    31  S    6.464726   5.239645   4.058647   4.543526   5.965545
    32  O    6.788800   5.486830   4.511279   5.249951   6.642907
    33  O    7.449106   6.333000   5.021450   5.155461   6.534607
    34  S    5.894585   4.691193   4.053658   4.915021   6.112167
    35  O    5.110831   4.101450   3.427132   4.036286   5.096687
    36  O    7.039800   5.873391   5.399754   6.286177   7.422975
    37  N    6.770116   5.532239   4.543403   5.164160   6.520952
    38  H    7.015059   5.765283   5.668957   6.913815   8.010189
    39  H    6.131304   5.342528   3.919618   3.423436   4.618719
    40  I    8.797458   7.535412   6.585525   7.184568   8.548490
                    6          7          8          9         10
     6  C    0.000000
     7  H    2.174796   0.000000
     8  H    3.411912   2.454511   0.000000
     9  C    4.253889   4.634956   2.741006   0.000000
    10  C    3.725587   5.319614   4.638537   2.833148   0.000000
    11  H    2.147745   4.311408   4.987676   4.630167   2.682843
    12  H    1.091074   2.497383   4.301594   5.344936   4.609243
    13  C    4.852154   6.131381   4.908495   2.458950   1.369567
    14  C    5.040084   5.823512   4.110363   1.384343   2.400434
    15  H    4.057724   5.925769   5.580613   3.924380   1.091302
    16  C    5.188033   4.951885   2.585174   1.493158   4.325809
    17  C    6.144459   5.791950   3.427663   2.504728   5.155434
    18  C    5.558385   4.977916   2.657830   2.541671   5.224863
    19  C    7.246479   6.547584   4.160808   3.823731   6.551943
    20  C    6.743100   5.815793   3.523886   3.840394   6.607679
    21  C    5.200621   4.755265   2.909515   2.953878   5.110373
    22  C    7.485477   6.535617   4.177951   4.324481   7.155917
    23  C    7.444755   6.328777   4.335743   5.000414   7.632771
    24  C    6.082712   5.374542   3.839402   4.326933   6.361538
    25  H    4.520383   4.502195   2.971873   2.592783   4.237633
    26  H    8.451157   7.339090   5.080197   5.415817   8.247130
    27  C    7.161584   6.134359   4.465144   5.193550   7.532161
    28  H    8.411086   7.151626   5.203377   5.960765   8.657585
    29  H    6.180051   5.607345   4.475759   4.959928   6.604606
    30  H    7.955710   6.837949   5.397920   6.255763   8.501191
    31  S    6.778420   7.371292   5.356705   2.740163   3.988546
    32  O    7.293694   7.593749   5.394259   3.119909   4.923537
    33  O    7.539947   8.428430   6.597646   3.879920   4.233688
    34  S    6.525718   6.566535   4.507005   3.050069   4.951620
    35  O    5.552709   5.844416   4.182734   2.857195   4.124453
    36  O    7.750695   7.596576   5.544129   4.434074   6.327746
    37  N    7.206355   7.587246   5.505944   3.288054   4.771550
    38  H    8.056479   7.354074   5.050195   4.672592   7.267697
    39  H    5.830389   7.205078   5.976798   3.428140   2.150136
    40  I    9.258748   9.576455   7.404412   5.282846   6.655997
                   11         12         13         14         15
    11  H    0.000000
    12  H    2.481270   0.000000
    13  C    4.047836   5.821998   0.000000
    14  C    4.826032   6.105283   1.414874   0.000000
    15  H    2.438207   4.755441   2.139333   3.398554   0.000000
    16  C    5.957930   6.249995   3.827654   2.509882   5.417102
    17  C    6.895437   7.186908   4.498379   3.163989   6.222266
    18  C    6.577862   6.553924   4.843219   3.591104   6.290944
    19  C    8.198024   8.248502   5.878388   4.509721   7.625659
    20  C    7.927800   7.689247   6.150614   4.820744   7.684396
    21  C    6.188530   6.125932   4.934354   3.933701   6.085179
    22  C    8.630887   8.449379   6.568536   5.176601   8.247111
    23  C    8.752273   8.305320   7.256851   5.989071   8.676809
    24  C    7.209759   6.888061   6.232746   5.269325   7.282111
    25  H    5.272908   5.453766   4.201157   3.442176   5.147665
    26  H    9.681373   9.380332   7.645217   6.246344   9.338283
    27  C    8.444418   7.954111   7.293886   6.174055   8.507749
    28  H    9.785401   9.247641   8.236341   6.925755   9.713867
    29  H    7.227828   6.886980   6.602051   5.817289   7.423204
    30  H    9.286588   8.672616   8.300190   7.218032   9.444221
    31  S    6.547994   7.852147   2.706821   1.762117   4.846009
    32  O    7.329580   8.376995   3.763461   2.622786   5.843810
    33  O    6.914438   8.569668   2.866722   2.606182   4.836312
    34  S    6.888317   7.548119   4.174792   3.129333   5.894056
    35  O    5.802473   6.520059   3.644324   2.967165   4.977121
    36  O    8.197925   8.734683   5.529770   4.516008   7.230532
    37  N    7.159297   8.266728   3.631521   2.686108   5.634378
    38  H    8.962448   9.042665   6.534497   5.212722   8.312729
    39  H    4.760998   6.750944   1.089071   2.167514   2.490906
    40  I    9.135521  10.316159   5.411921   4.601152   7.418773
                   16         17         18         19         20
    16  C    0.000000
    17  C    1.384202   0.000000
    18  C    1.432129   2.418471   0.000000
    19  C    2.457541   1.415074   2.831370   0.000000
    20  C    2.465504   2.784942   1.427382   2.425794   0.000000
    21  C    2.501077   3.738916   1.424615   4.253836   2.452862
    22  C    2.831512   2.401440   2.464354   1.370196   1.420639
    23  C    3.763100   4.207121   2.458831   3.725289   1.422324
    24  C    3.750452   4.847843   2.430716   5.064449   2.809488
    25  H    2.739097   4.108789   2.180036   4.907123   3.442433
    26  H    3.922826   3.399368   3.446823   2.139736   2.170355
    27  C    4.252904   5.041462   2.821083   4.853290   2.428464
    28  H    4.629354   4.828327   3.439908   4.049972   2.166620
    29  H    4.633997   5.823905   3.419430   6.131730   3.900323
    30  H    5.343958   6.106736   3.912070   5.823312   3.420125
    31  S    3.070085   3.198653   4.059388   4.259662   4.946156
    32  O    2.917574   3.134398   3.450898   3.851693   4.120058
    33  O    4.454848   4.574591   5.417818   5.613714   6.331468
    34  S    2.735402   1.765305   4.054935   2.717370   4.545872
    35  O    3.113871   2.623837   4.519462   3.786142   5.274241
    36  O    3.875134   2.605282   5.021026   2.878696   5.162860
    37  N    3.273828   2.693720   4.504159   3.626034   5.120878
    38  H    3.427395   2.167912   3.920078   1.089269   3.424316
    39  H    4.677086   5.203861   5.699867   6.541367   6.950586
    40  I    5.035809   4.209387   6.059329   4.599946   6.345441
                   21         22         23         24         25
    21  C    0.000000
    22  C    3.754307   0.000000
    23  C    2.806104   2.473007   0.000000
    24  C    1.373182   4.229544   2.417856   0.000000
    25  H    1.090374   4.637824   3.896300   2.135838   0.000000
    26  H    4.620715   1.091401   2.692303   4.855405   5.580619
    27  C    2.424540   3.726569   1.372308   1.417582   3.412546
    28  H    3.897637   2.684484   1.091604   3.416027   4.987814
    29  H    2.135822   5.320153   3.399966   1.090974   2.455761
    30  H    3.405341   4.610399   2.139965   2.175187   4.302424
    31  S    4.658710   5.017502   6.129380   5.861236   4.449975
    32  O    4.034273   4.290485   5.143310   5.038449   4.067225
    33  O    5.857814   6.403210   7.460112   7.025912   5.501274
    34  S    5.229381   3.996651   5.966980   6.456239   5.340696
    35  O    5.485294   4.953451   6.671062   6.796431   5.376739
    36  O    6.327042   4.246836   6.543028   7.446349   6.585135
    37  N    5.481436   4.743130   6.465689   6.708896   5.459110
    38  H    5.342479   2.150571   4.620090   6.131892   5.975662
    39  H    5.807927   7.294013   8.059580   7.069707   5.087605
    40  I    7.104607   5.687796   7.592199   8.188496   7.210649
                   26         27         28         29         30
    26  H    0.000000
    27  C    4.059567   0.000000
    28  H    2.440806   2.147591   0.000000
    29  H    5.927212   2.174776   4.311256   0.000000
    30  H    4.757611   1.091076   2.481071   2.497379   0.000000
    31  S    5.967776   6.515409   6.918474   6.515591   7.534328
    32  O    5.156101   5.532917   5.878046   5.733031   6.491180
    33  O    7.318258   7.761800   8.249359   7.563936   8.743735
    34  S    4.856393   6.775093   6.553059   7.360091   7.849057
    35  O    5.879963   7.314591   7.365339   7.596394   8.400716
    36  O    4.853636   7.543567   6.927669   8.422990   8.574326
    37  N    5.605002   7.143300   7.104944   7.522308   8.198961
    38  H    2.490842   5.831542   4.763088   7.205555   6.752279
    39  H    8.344399   8.113186   9.013303   7.413369   9.105241
    40  I    6.283709   8.413303   8.029762   9.037645   9.397947
                   31         32         33         34         35
    31  S    0.000000
    32  O    1.422155   0.000000
    33  O    1.421765   2.449139   0.000000
    34  S    2.971965   3.564503   4.029438   0.000000
    35  O    3.472271   4.371235   4.348424   1.418911   0.000000
    36  O    4.056488   4.491339   4.978569   1.421092   2.456766
    37  N    1.696559   2.543362   2.492127   1.694339   2.519610
    38  H    4.769196   4.473189   6.016210   2.821110   4.000106
    39  H    2.804481   3.974039   2.400888   4.665579   4.233518
    40  I    3.130843   3.541751   3.306829   3.237525   4.262661
                   36         37         38         39         40
    36  O    0.000000
    37  N    2.490327   0.000000
    38  H    2.421033   3.791526   0.000000
    39  H    5.913547   3.779497   7.109866   0.000000
    40  I    3.114461   2.053490   4.372184   5.262758   0.000000
 Symmetry turned off by external request.
 Stoichiometry    C20H12INO4S2
 Framework group  C1[X(C20H12INO4S2)]
 Deg. of freedom   114
 Full point group                 C1      NOp   1
 Rotational constants (GHZ):           0.2082681           0.1078417           0.0875379
 Leave Link  202 at Thu May 15 11:45:38 2025, MaxMem=  8321499136 cpu:               0.1 elap:               0.0
 (Enter /cm/shared/apps/spack/cpu/opt/spack/linux-centos8-zen/gcc-8.3.1/gaussian-16.C.01-po5bqktfeugvmjyga3v7eigbecnokxng/g16/l301.exe)
 Standard basis: def2TZVPP (5D, 7F)
 Ernie: Thresh=  0.10000D-02 Tol=  0.10000D-05 Strict=F.
  1077 basis functions,  1726 primitive gaussians,  1235 cartesian basis functions
   114 alpha electrons      114 beta electrons
       nuclear repulsion energy      3503.1516102767 Hartrees.
 IExCor=  402 DFT=T Ex+Corr=B3LYP ExCW=0 ScaHFX=  0.200000
 ScaDFX=  0.800000  0.720000  1.000000  0.810000 ScalE2=  1.000000  1.000000
 IRadAn=      5 IRanWt=     -1 IRanGd=            0 ICorTp=0 IEmpDi=141
 NAtoms=   40 NActive=   40 NUniq=   40 SFac= 1.00D+00 NAtFMM=   60 NAOKFM=F Big=F
 Integral buffers will be    131072 words long.
 Raffenetti 2 integral format.
 Two-electron integral symmetry is turned off.
 R6Disp:  Grimme-D3(BJ) Dispersion energy=       -0.1377032741 Hartrees.
 Nuclear repulsion after empirical dispersion term =     3503.0139070026 Hartrees.
 ------------------------------------------------------------------------------
 Polarizable Continuum Model (PCM)
 =================================
 Model                : PCM.
 Atomic radii         : SMD-Coulomb.
 Polarization charges : Total charges.
 Charge compensation  : None.
 Solution method      : On-the-fly selection.
 Cavity type          : VdW (van der Waals Surface) (Alpha=1.000).
 Cavity algorithm     : GePol (No added spheres)
                        Default sphere list used, NSphG=   40.
                        Lebedev-Laikov grids with approx.  5.0 points / Ang**2.
                        Smoothing algorithm: York/Karplus (Gamma=1.0000).
                        Polarization charges: spherical gaussians, with
                                              point-specific exponents (IZeta= 3).
                        Self-potential: point-specific (ISelfS= 7).
                        Self-field    : sphere-specific E.n sum rule (ISelfD= 2).
 Solvent              : PropylEthanoate, Eps=   5.520500 Eps(inf)=   1.916010
 ------------------------------------------------------------------------------
 GePol: Number of generator spheres                  =      40
 GePol: Total number of spheres                      =      40
 GePol: Number of exposed spheres                    =      40 (100.00%)
 GePol: Number of points                             =    3343
 GePol: Average weight of points                     =       0.12
 GePol: Minimum weight of points                     =   0.14D-10
 GePol: Maximum weight of points                     =    0.19693
 GePol: Number of points with low weight             =     184
 GePol: Fraction of low-weight points (<1% of avg)   =       5.50%
 GePol: Cavity surface area                          =    389.920 Ang**2
 GePol: Cavity volume                                =    434.622 Ang**3
 ------------------------------------------------------------------------------
 Atomic radii for non-electrostatic terms: SMD-CDS.
 ------------------------------------------------------------------------------
 PCM non-electrostatic energy =        -0.0112403513 Hartrees.
 Nuclear repulsion after PCM non-electrostatic terms =     3503.0026666513 Hartrees.
 Leave Link  301 at Thu May 15 11:45:38 2025, MaxMem=  8321499136 cpu:               2.0 elap:               0.1
 (Enter /cm/shared/apps/spack/cpu/opt/spack/linux-centos8-zen/gcc-8.3.1/gaussian-16.C.01-po5bqktfeugvmjyga3v7eigbecnokxng/g16/l302.exe)
 NPDir=0 NMtPBC=     1 NCelOv=     1 NCel=       1 NClECP=     1 NCelD=      1
         NCelK=      1 NCelE2=     1 NClLst=     1 CellRange=     0.0.
 One-electron integrals computed using PRISM.
   1 Symmetry operations used in ECPInt.
 ECPInt:  NShTT=   76636 NPrTT=  232912 LenC2=   65250 LenP2D=  138026.
 LDataN:  DoStor=T MaxTD1= 7 Len=  274
 NBasis=  1077 RedAO= T EigKep=  2.91D-06  NBF=  1077
 NBsUse=  1077 1.00D-06 EigRej= -1.00D+00 NBFU=  1077
 Precomputing XC quadrature grid using
 IXCGrd= 4 IRadAn=           5 IRanWt=          -1 IRanGd=           0 AccXCQ= 0.00D+00.
 Defaulting to unpruned grid for atomic number  53.
 Generated NRdTot=       0 NPtTot=           0 NUsed=           0 NTot=          32
 NSgBfM=  1216  1216  1216  1216  1216 MxSgAt=    40 MxSgA2=    40.
 Leave Link  302 at Thu May 15 11:45:40 2025, MaxMem=  8321499136 cpu:              52.7 elap:               1.7
 (Enter /cm/shared/apps/spack/cpu/opt/spack/linux-centos8-zen/gcc-8.3.1/gaussian-16.C.01-po5bqktfeugvmjyga3v7eigbecnokxng/g16/l303.exe)
 DipDrv:  MaxL=1.
 Leave Link  303 at Thu May 15 11:45:40 2025, MaxMem=  8321499136 cpu:               3.9 elap:               0.2
 (Enter /cm/shared/apps/spack/cpu/opt/spack/linux-centos8-zen/gcc-8.3.1/gaussian-16.C.01-po5bqktfeugvmjyga3v7eigbecnokxng/g16/l401.exe)
 ExpMin= 7.49D-02 ExpMax= 6.07D+04 ExpMxC= 2.07D+03 IAcc=3 IRadAn=         5 AccDes= 0.00D+00
 Harris functional with IExCor=  402 and IRadAn=       5 diagonalized for initial guess.
 HarFok:  IExCor=  402 AccDes= 0.00D+00 IRadAn=         5 IDoV= 1 UseB2=F ITyADJ=14
 ICtDFT=  3500011 ScaDFX=  1.000000  1.000000  1.000000  1.000000
 Defaulting to unpruned grid for atomic number  53.
 FoFCou: FMM=F IPFlag=           0 FMFlag=      100000 FMFlg1=           0
         NFxFlg=           0 DoJE=T BraDBF=F KetDBF=T FulRan=T
         wScrn=  0.000000 ICntrl=       500 IOpCl=  0 I1Cent=   200000004 NGrid=           0
         NMat0=    1 NMatS0=      1 NMatT0=    0 NMatD0=    1 NMtDS0=    0 NMtDT0=    0
 Symmetry not used in FoFCou.
 Harris En= -2219.81176842852    
 JPrj=0 DoOrth=F DoCkMO=F.
 Leave Link  401 at Thu May 15 11:45:44 2025, MaxMem=  8321499136 cpu:             113.0 elap:               3.6
 (Enter /cm/shared/apps/spack/cpu/opt/spack/linux-centos8-zen/gcc-8.3.1/gaussian-16.C.01-po5bqktfeugvmjyga3v7eigbecnokxng/g16/l502.exe)
 Two-electron integral symmetry not used.
 Closed shell SCF:
 Using DIIS extrapolation, IDIIS=  1040.
 NGot=  8321499136 LenX=  8318400665 LenY=  8316874205
 Requested convergence on RMS density matrix=1.00D-08 within 128 cycles.
 Requested convergence on MAX density matrix=1.00D-06.
 Requested convergence on             energy=1.00D-06.
 No special actions if energy rises.
 Fock matrices will be formed incrementally for  20 cycles.

 Cycle   1  Pass 1  IDiag  1:
 FoFJK:  IHMeth= 1 ICntrl=       0 DoSepK=F KAlg= 0 I1Cent=           0 FoldK=F
 IRaf= 780000000 NMat=       1 IRICut=       1 DoRegI=T DoRafI=F ISym2E= 0 IDoP0=0 IntGTp=1.
 FoFCou: FMM=F IPFlag=           0 FMFlag=      100000 FMFlg1=           0
         NFxFlg=           0 DoJE=F BraDBF=F KetDBF=F FulRan=T
         wScrn=  0.000000 ICntrl=         0 IOpCl=  0 I1Cent=           0 NGrid=           0
         NMat0=    1 NMatS0=      1 NMatT0=    0 NMatD0=    1 NMtDS0=    0 NMtDT0=    0
 Symmetry not used in FoFCou.
 Defaulting to unpruned grid for atomic number  53.
 Defaulting to unpruned grid for atomic number  53.
 Defaulting to unpruned grid for atomic number  53.
 Defaulting to unpruned grid for atomic number  53.
 Defaulting to unpruned grid for atomic number  53.
 Defaulting to unpruned grid for atomic number  53.
 Defaulting to unpruned grid for atomic number  53.
 Defaulting to unpruned grid for atomic number  53.
 Defaulting to unpruned grid for atomic number  53.
 Defaulting to unpruned grid for atomic number  53.
 Defaulting to unpruned grid for atomic number  53.
 Defaulting to unpruned grid for atomic number  53.
 Defaulting to unpruned grid for atomic number  53.
 Defaulting to unpruned grid for atomic number  53.
 Defaulting to unpruned grid for atomic number  53.
 Defaulting to unpruned grid for atomic number  53.
 Defaulting to unpruned grid for atomic number  53.
 Defaulting to unpruned grid for atomic number  53.
 Defaulting to unpruned grid for atomic number  53.
 Defaulting to unpruned grid for atomic number  53.
 Defaulting to unpruned grid for atomic number  53.
 Defaulting to unpruned grid for atomic number  53.
 Defaulting to unpruned grid for atomic number  53.
 Defaulting to unpruned grid for atomic number  53.
 Defaulting to unpruned grid for atomic number  53.
 Defaulting to unpruned grid for atomic number  53.
 Defaulting to unpruned grid for atomic number  53.
 Defaulting to unpruned grid for atomic number  53.
 Defaulting to unpruned grid for atomic number  53.
 Defaulting to unpruned grid for atomic number  53.
 Defaulting to unpruned grid for atomic number  53.
 Defaulting to unpruned grid for atomic number  53.
 Inv3:  Mode=1 IEnd=    33526947.
 Iteration    1 A*A^-1 deviation from unit magnitude is 3.33D-15 for    448.
 Iteration    1 A*A^-1 deviation from orthogonality  is 2.66D-15 for   1780    506.
 Iteration    1 A^-1*A deviation from unit magnitude is 3.33D-15 for   3193.
 Iteration    1 A^-1*A deviation from orthogonality  is 5.44D-15 for   1714   1678.
 E= -2218.83604026033    
 DIIS: error= 1.51D-02 at cycle   1 NSaved=   1.
 NSaved= 1 IEnMin= 1 EnMin= -2218.83604026033     IErMin= 1 ErrMin= 1.51D-02
 ErrMax= 1.51D-02  0.00D+00 EMaxC= 1.00D-01 BMatC= 1.25D+00 BMatP= 1.25D+00
 IDIUse=3 WtCom= 8.49D-01 WtEn= 1.51D-01
 Coeff-Com:  0.100D+01
 Coeff-En:   0.100D+01
 Coeff:      0.100D+01
 Gap=     0.318 Goal=   None    Shift=    0.000
 GapD=    0.318 DampG=1.000 DampE=0.500 DampFc=0.5000 IDamp=-1.
 Damping current iteration by 5.00D-01
 RMSDP=5.65D-03 MaxDP=1.33D+00              OVMax= 8.91D-01

 Cycle   2  Pass 1  IDiag  1:
 RMSU=  2.79D-03    CP:  1.06D+00
 E= -2218.62540737320     Delta-E=        0.210632887134 Rises=F Damp=T
 DIIS: error= 1.11D-02 at cycle   2 NSaved=   2.
 NSaved= 2 IEnMin= 1 EnMin= -2218.83604026033     IErMin= 2 ErrMin= 1.11D-02
 ErrMax= 1.11D-02  0.00D+00 EMaxC= 1.00D-01 BMatC= 4.15D-01 BMatP= 1.25D+00
 IDIUse=3 WtCom= 8.89D-01 WtEn= 1.11D-01
 Coeff-Com:  0.329D+00 0.671D+00
 Coeff-En:   0.576D+00 0.424D+00
 Coeff:      0.356D+00 0.644D+00
 Gap=    -0.015 Goal=   None    Shift=    0.000
 RMSDP=2.95D-03 MaxDP=3.37D-01 DE= 2.11D-01 OVMax= 7.92D-01

 Cycle   3  Pass 1  IDiag  1:
 RMSU=  2.78D-03    CP:  1.06D+00  6.50D-01
 E= -2219.40033158011     Delta-E=       -0.774924206916 Rises=F Damp=F
 DIIS: error= 1.23D-02 at cycle   3 NSaved=   3.
 NSaved= 3 IEnMin= 3 EnMin= -2219.40033158011     IErMin= 2 ErrMin= 1.11D-02
 ErrMax= 1.23D-02  0.00D+00 EMaxC= 1.00D-01 BMatC= 3.80D-01 BMatP= 4.15D-01
 IDIUse=3 WtCom= 8.77D-01 WtEn= 1.23D-01
 Coeff-Com:  0.137D+00 0.472D+00 0.391D+00
 Coeff-En:   0.000D+00 0.118D+00 0.882D+00
 Coeff:      0.120D+00 0.429D+00 0.451D+00
 Gap=     0.205 Goal=   None    Shift=    0.000
 RMSDP=2.80D-03 MaxDP=5.25D-01 DE=-7.75D-01 OVMax= 1.32D-01

 Cycle   4  Pass 1  IDiag  1:
 RMSU=  8.79D-04    CP:  1.01D+00  3.68D-01  9.87D-02
 E= -2219.72223399973     Delta-E=       -0.321902419619 Rises=F Damp=F
 DIIS: error= 5.27D-03 at cycle   4 NSaved=   4.
 NSaved= 4 IEnMin= 4 EnMin= -2219.72223399973     IErMin= 4 ErrMin= 5.27D-03
 ErrMax= 5.27D-03  0.00D+00 EMaxC= 1.00D-01 BMatC= 5.36D-02 BMatP= 3.80D-01
 IDIUse=3 WtCom= 9.47D-01 WtEn= 5.27D-02
 Coeff-Com:  0.369D-02 0.159D+00 0.284D+00 0.554D+00
 Coeff-En:   0.000D+00 0.000D+00 0.108D+00 0.892D+00
 Coeff:      0.350D-02 0.151D+00 0.274D+00 0.571D+00
 Gap=     0.135 Goal=   None    Shift=    0.000
 RMSDP=3.96D-04 MaxDP=4.99D-02 DE=-3.22D-01 OVMax= 4.95D-02

 Cycle   5  Pass 1  IDiag  1:
 RMSU=  2.81D-04    CP:  1.02D+00  3.89D-01  1.84D-01  8.61D-01
 E= -2219.76382936675     Delta-E=       -0.041595367024 Rises=F Damp=F
 DIIS: error= 1.29D-03 at cycle   5 NSaved=   5.
 NSaved= 5 IEnMin= 5 EnMin= -2219.76382936675     IErMin= 5 ErrMin= 1.29D-03
 ErrMax= 1.29D-03  0.00D+00 EMaxC= 1.00D-01 BMatC= 3.93D-03 BMatP= 5.36D-02
 IDIUse=3 WtCom= 9.87D-01 WtEn= 1.29D-02
 Coeff-Com: -0.140D-01 0.307D-01 0.640D-01 0.260D+00 0.659D+00
 Coeff-En:   0.000D+00 0.000D+00 0.000D+00 0.000D+00 0.100D+01
 Coeff:     -0.138D-01 0.303D-01 0.632D-01 0.257D+00 0.664D+00
 Gap=     0.131 Goal=   None    Shift=    0.000
 RMSDP=1.50D-04 MaxDP=1.88D-02 DE=-4.16D-02 OVMax= 1.16D-02

 Cycle   6  Pass 1  IDiag  1:
 RMSU=  1.47D-04    CP:  1.02D+00  3.98D-01  1.84D-01  8.44D-01  1.00D+00
 E= -2219.76615939987     Delta-E=       -0.002330033116 Rises=F Damp=F
 DIIS: error= 5.10D-04 at cycle   6 NSaved=   6.
 NSaved= 6 IEnMin= 6 EnMin= -2219.76615939987     IErMin= 6 ErrMin= 5.10D-04
 ErrMax= 5.10D-04  0.00D+00 EMaxC= 1.00D-01 BMatC= 8.39D-04 BMatP= 3.93D-03
 IDIUse=3 WtCom= 9.95D-01 WtEn= 5.10D-03
 Coeff-Com: -0.717D-02 0.862D-02 0.830D-02 0.901D-01 0.389D+00 0.511D+00
 Coeff-En:   0.000D+00 0.000D+00 0.000D+00 0.000D+00 0.180D+00 0.820D+00
 Coeff:     -0.714D-02 0.858D-02 0.826D-02 0.897D-01 0.388D+00 0.513D+00
 Gap=     0.135 Goal=   None    Shift=    0.000
 RMSDP=6.65D-05 MaxDP=1.03D-02 DE=-2.33D-03 OVMax= 8.43D-03

 Cycle   7  Pass 1  IDiag  1:
 RMSU=  3.32D-05    CP:  1.02D+00  3.98D-01  1.81D-01  8.62D-01  9.75D-01
                    CP:  6.33D-01
 E= -2219.76692389617     Delta-E=       -0.000764496302 Rises=F Damp=F
 DIIS: error= 1.39D-04 at cycle   7 NSaved=   7.
 NSaved= 7 IEnMin= 7 EnMin= -2219.76692389617     IErMin= 7 ErrMin= 1.39D-04
 ErrMax= 1.39D-04  0.00D+00 EMaxC= 1.00D-01 BMatC= 9.45D-05 BMatP= 8.39D-04
 IDIUse=3 WtCom= 9.99D-01 WtEn= 1.39D-03
 Coeff-Com: -0.248D-02 0.148D-02-0.329D-02 0.237D-01 0.143D+00 0.297D+00
 Coeff-Com:  0.541D+00
 Coeff-En:   0.000D+00 0.000D+00 0.000D+00 0.000D+00 0.000D+00 0.551D-01
 Coeff-En:   0.945D+00
 Coeff:     -0.248D-02 0.148D-02-0.329D-02 0.236D-01 0.142D+00 0.297D+00
 Coeff:      0.541D+00
 Gap=     0.135 Goal=   None    Shift=    0.000
 RMSDP=1.66D-05 MaxDP=2.92D-03 DE=-7.64D-04 OVMax= 2.67D-03

 Cycle   8  Pass 1  IDiag  1:
 RMSU=  9.71D-06    CP:  1.02D+00  3.98D-01  1.79D-01  8.61D-01  9.82D-01
                    CP:  6.98D-01  7.75D-01
 E= -2219.76699974345     Delta-E=       -0.000075847282 Rises=F Damp=F
 DIIS: error= 5.74D-05 at cycle   8 NSaved=   8.
 NSaved= 8 IEnMin= 8 EnMin= -2219.76699974345     IErMin= 8 ErrMin= 5.74D-05
 ErrMax= 5.74D-05  0.00D+00 EMaxC= 1.00D-01 BMatC= 7.52D-06 BMatP= 9.45D-05
 IDIUse=1 WtCom= 1.00D+00 WtEn= 0.00D+00
 Coeff-Com: -0.103D-02 0.514D-03-0.258D-02 0.830D-02 0.553D-01 0.133D+00
 Coeff-Com:  0.286D+00 0.521D+00
 Coeff:     -0.103D-02 0.514D-03-0.258D-02 0.830D-02 0.553D-01 0.133D+00
 Coeff:      0.286D+00 0.521D+00
 Gap=     0.135 Goal=   None    Shift=    0.000
 RMSDP=5.61D-06 MaxDP=6.65D-04 DE=-7.58D-05 OVMax= 1.03D-03

 Cycle   9  Pass 1  IDiag  1:
 RMSU=  4.14D-06    CP:  1.02D+00  3.98D-01  1.78D-01  8.62D-01  9.81D-01
                    CP:  6.89D-01  8.19D-01  8.72D-01
 E= -2219.76700562690     Delta-E=       -0.000005883448 Rises=F Damp=F
 DIIS: error= 3.13D-05 at cycle   9 NSaved=   9.
 NSaved= 9 IEnMin= 9 EnMin= -2219.76700562690     IErMin= 9 ErrMin= 3.13D-05
 ErrMax= 3.13D-05  0.00D+00 EMaxC= 1.00D-01 BMatC= 1.47D-06 BMatP= 7.52D-06
 IDIUse=1 WtCom= 1.00D+00 WtEn= 0.00D+00
 Coeff-Com: -0.280D-03 0.198D-03-0.111D-02 0.148D-02 0.114D-01 0.327D-01
 Coeff-Com:  0.744D-01 0.318D+00 0.564D+00
 Coeff:     -0.280D-03 0.198D-03-0.111D-02 0.148D-02 0.114D-01 0.327D-01
 Coeff:      0.744D-01 0.318D+00 0.564D+00
 Gap=     0.135 Goal=   None    Shift=    0.000
 RMSDP=2.72D-06 MaxDP=4.53D-04 DE=-5.88D-06 OVMax= 5.25D-04

 Cycle  10  Pass 1  IDiag  1:
 RMSU=  1.34D-06    CP:  1.02D+00  3.98D-01  1.78D-01  8.62D-01  9.83D-01
                    CP:  6.99D-01  8.14D-01  9.21D-01  6.38D-01
 E= -2219.76700688507     Delta-E=       -0.000001258170 Rises=F Damp=F
 DIIS: error= 1.05D-05 at cycle  10 NSaved=  10.
 NSaved=10 IEnMin=10 EnMin= -2219.76700688507     IErMin=10 ErrMin= 1.05D-05
 ErrMax= 1.05D-05  0.00D+00 EMaxC= 1.00D-01 BMatC= 2.39D-07 BMatP= 1.47D-06
 IDIUse=1 WtCom= 1.00D+00 WtEn= 0.00D+00
 Coeff-Com: -0.417D-04 0.990D-04-0.414D-03-0.343D-03-0.460D-03 0.370D-02
 Coeff-Com:  0.882D-02 0.133D+00 0.361D+00 0.495D+00
 Coeff:     -0.417D-04 0.990D-04-0.414D-03-0.343D-03-0.460D-03 0.370D-02
 Coeff:      0.882D-02 0.133D+00 0.361D+00 0.495D+00
 Gap=     0.135 Goal=   None    Shift=    0.000
 RMSDP=9.87D-07 MaxDP=2.01D-04 DE=-1.26D-06 OVMax= 1.25D-04

 Cycle  11  Pass 1  IDiag  1:
 RMSU=  4.77D-07    CP:  1.02D+00  3.98D-01  1.78D-01  8.62D-01  9.82D-01
                    CP:  6.97D-01  8.19D-01  9.46D-01  7.40D-01  6.65D-01
 E= -2219.76700710252     Delta-E=       -0.000000217449 Rises=F Damp=F
 DIIS: error= 2.35D-06 at cycle  11 NSaved=  11.
 NSaved=11 IEnMin=11 EnMin= -2219.76700710252     IErMin=11 ErrMin= 2.35D-06
 ErrMax= 2.35D-06  0.00D+00 EMaxC= 1.00D-01 BMatC= 1.49D-08 BMatP= 2.39D-07
 IDIUse=1 WtCom= 1.00D+00 WtEn= 0.00D+00
 Coeff-Com:  0.323D-05 0.222D-04-0.864D-04-0.354D-03-0.168D-02-0.214D-02
 Coeff-Com: -0.538D-02 0.282D-01 0.123D+00 0.258D+00 0.600D+00
 Coeff:      0.323D-05 0.222D-04-0.864D-04-0.354D-03-0.168D-02-0.214D-02
 Coeff:     -0.538D-02 0.282D-01 0.123D+00 0.258D+00 0.600D+00
 Gap=     0.135 Goal=   None    Shift=    0.000
 RMSDP=2.82D-07 MaxDP=4.18D-05 DE=-2.17D-07 OVMax= 3.32D-05

 Cycle  12  Pass 1  IDiag  1:
 RMSU=  1.73D-07    CP:  1.02D+00  3.98D-01  1.78D-01  8.62D-01  9.82D-01
                    CP:  6.98D-01  8.20D-01  9.47D-01  7.47D-01  7.57D-01
                    CP:  8.06D-01
 E= -2219.76700711494     Delta-E=       -0.000000012420 Rises=F Damp=F
 DIIS: error= 8.29D-07 at cycle  12 NSaved=  12.
 NSaved=12 IEnMin=12 EnMin= -2219.76700711494     IErMin=12 ErrMin= 8.29D-07
 ErrMax= 8.29D-07  0.00D+00 EMaxC= 1.00D-01 BMatC= 2.70D-09 BMatP= 1.49D-08
 IDIUse=1 WtCom= 1.00D+00 WtEn= 0.00D+00
 Coeff-Com:  0.146D-05 0.278D-05-0.121D-04-0.132D-03-0.705D-03-0.111D-02
 Coeff-Com: -0.304D-02 0.150D-02 0.312D-01 0.909D-01 0.362D+00 0.520D+00
 Coeff:      0.146D-05 0.278D-05-0.121D-04-0.132D-03-0.705D-03-0.111D-02
 Coeff:     -0.304D-02 0.150D-02 0.312D-01 0.909D-01 0.362D+00 0.520D+00
 Gap=     0.135 Goal=   None    Shift=    0.000
 RMSDP=1.52D-07 MaxDP=2.56D-05 DE=-1.24D-08 OVMax= 1.29D-05

 Cycle  13  Pass 1  IDiag  1:
 RMSU=  7.29D-08    CP:  1.02D+00  3.98D-01  1.78D-01  8.62D-01  9.82D-01
                    CP:  6.97D-01  8.19D-01  9.49D-01  7.47D-01  7.37D-01
                    CP:  8.71D-01  5.65D-01
 E= -2219.76700711708     Delta-E=       -0.000000002135 Rises=F Damp=F
 DIIS: error= 2.28D-07 at cycle  13 NSaved=  13.
 NSaved=13 IEnMin=13 EnMin= -2219.76700711708     IErMin=13 ErrMin= 2.28D-07
 ErrMax= 2.28D-07  0.00D+00 EMaxC= 1.00D-01 BMatC= 3.49D-10 BMatP= 2.70D-09
 IDIUse=1 WtCom= 1.00D+00 WtEn= 0.00D+00
 Coeff-Com:  0.103D-05-0.252D-05 0.981D-05-0.270D-04-0.191D-03-0.371D-03
 Coeff-Com: -0.994D-03-0.427D-02-0.143D-02 0.107D-01 0.130D+00 0.313D+00
 Coeff-Com:  0.553D+00
 Coeff:      0.103D-05-0.252D-05 0.981D-05-0.270D-04-0.191D-03-0.371D-03
 Coeff:     -0.994D-03-0.427D-02-0.143D-02 0.107D-01 0.130D+00 0.313D+00
 Coeff:      0.553D+00
 Gap=     0.135 Goal=   None    Shift=    0.000
 RMSDP=5.37D-08 MaxDP=8.12D-06 DE=-2.13D-09 OVMax= 3.40D-06

 Cycle  14  Pass 1  IDiag  1:
 RMSU=  1.87D-08    CP:  1.02D+00  3.98D-01  1.78D-01  8.62D-01  9.82D-01
                    CP:  6.97D-01  8.20D-01  9.49D-01  7.49D-01  7.46D-01
                    CP:  8.76D-01  7.01D-01  7.58D-01
 E= -2219.76700711736     Delta-E=       -0.000000000289 Rises=F Damp=F
 DIIS: error= 7.66D-08 at cycle  14 NSaved=  14.
 NSaved=14 IEnMin=14 EnMin= -2219.76700711736     IErMin=14 ErrMin= 7.66D-08
 ErrMax= 7.66D-08  0.00D+00 EMaxC= 1.00D-01 BMatC= 3.30D-11 BMatP= 3.49D-10
 IDIUse=1 WtCom= 1.00D+00 WtEn= 0.00D+00
 Coeff-Com:  0.113D-05-0.122D-05 0.741D-05-0.545D-05-0.467D-04-0.987D-04
 Coeff-Com: -0.185D-03-0.223D-02-0.351D-02-0.520D-02 0.279D-01 0.105D+00
 Coeff-Com:  0.289D+00 0.590D+00
 Coeff:      0.113D-05-0.122D-05 0.741D-05-0.545D-05-0.467D-04-0.987D-04
 Coeff:     -0.185D-03-0.223D-02-0.351D-02-0.520D-02 0.279D-01 0.105D+00
 Coeff:      0.289D+00 0.590D+00
 Gap=     0.135 Goal=   None    Shift=    0.000
 RMSDP=1.13D-08 MaxDP=1.31D-06 DE=-2.89D-10 OVMax= 1.38D-06

 Cycle  15  Pass 1  IDiag  1:
 RMSU=  7.05D-09    CP:  1.02D+00  3.98D-01  1.78D-01  8.62D-01  9.82D-01
                    CP:  6.97D-01  8.20D-01  9.49D-01  7.49D-01  7.46D-01
                    CP:  8.87D-01  6.94D-01  7.96D-01  8.88D-01
 E= -2219.76700711734     Delta-E=        0.000000000022 Rises=F Damp=F
 DIIS: error= 4.64D-08 at cycle  15 NSaved=  15.
 NSaved=15 IEnMin=14 EnMin= -2219.76700711736     IErMin=15 ErrMin= 4.64D-08
 ErrMax= 4.64D-08  0.00D+00 EMaxC= 1.00D-01 BMatC= 4.67D-12 BMatP= 3.30D-11
 IDIUse=1 WtCom= 1.00D+00 WtEn= 0.00D+00
 Coeff-Com:  0.624D-06-0.694D-06 0.331D-05-0.127D-05-0.932D-05-0.250D-04
 Coeff-Com: -0.160D-04-0.796D-03-0.155D-02-0.387D-02 0.275D-02 0.263D-01
 Coeff-Com:  0.102D+00 0.320D+00 0.555D+00
 Coeff:      0.624D-06-0.694D-06 0.331D-05-0.127D-05-0.932D-05-0.250D-04
 Coeff:     -0.160D-04-0.796D-03-0.155D-02-0.387D-02 0.275D-02 0.263D-01
 Coeff:      0.102D+00 0.320D+00 0.555D+00
 Gap=     0.135 Goal=   None    Shift=    0.000
 RMSDP=3.38D-09 MaxDP=3.50D-07 DE= 2.18D-11 OVMax= 7.19D-07

 Error on total polarization charges =  0.05367
 SCF Done:  E(RB3LYP) =  -2219.76700712     A.U. after   15 cycles
            NFock= 15  Conv=0.34D-08     -V/T= 2.0943
 KE= 2.028435131118D+03 PE=-1.215239153696D+04 EE= 4.401186732071D+03
 SMD-CDS (non-electrostatic) energy       (kcal/mol) =      -7.05
 (included in total energy above)
 Leave Link  502 at Thu May 15 11:56:19 2025, MaxMem=  8321499136 cpu:           20117.3 elap:             634.8
 (Enter /cm/shared/apps/spack/cpu/opt/spack/linux-centos8-zen/gcc-8.3.1/gaussian-16.C.01-po5bqktfeugvmjyga3v7eigbecnokxng/g16/l601.exe)
 Copying SCF densities to generalized density rwf, IOpCl= 0 IROHF=0.

 **********************************************************************

            Population analysis using the SCF Density.

 **********************************************************************

 Alpha  occ. eigenvalues --  -89.07044 -89.06961 -19.13954 -19.13707 -19.13545
 Alpha  occ. eigenvalues --  -19.13351 -14.38721 -10.22596 -10.22453 -10.22402
 Alpha  occ. eigenvalues --  -10.22312 -10.20742 -10.20674 -10.20436 -10.20334
 Alpha  occ. eigenvalues --  -10.19849 -10.19811 -10.19390 -10.19376 -10.18857
 Alpha  occ. eigenvalues --  -10.18844 -10.18779 -10.18767 -10.18727 -10.18695
 Alpha  occ. eigenvalues --  -10.18680 -10.18647  -8.11744  -8.11671  -6.87360
 Alpha  occ. eigenvalues --   -6.08145  -6.08075  -6.07917  -6.07867  -6.07829
 Alpha  occ. eigenvalues --   -6.07804  -4.90296  -4.88391  -4.88338  -1.95001
 Alpha  occ. eigenvalues --   -1.94429  -1.94369  -1.92763  -1.92762  -1.15520
 Alpha  occ. eigenvalues --   -1.14298  -1.03915  -1.03398  -0.93593  -0.90921
 Alpha  occ. eigenvalues --   -0.89061  -0.85292  -0.84413  -0.81443  -0.78342
 Alpha  occ. eigenvalues --   -0.77570  -0.76838  -0.74921  -0.73597  -0.72299
 Alpha  occ. eigenvalues --   -0.69734  -0.67301  -0.64471  -0.64211  -0.62889
 Alpha  occ. eigenvalues --   -0.62434  -0.59100  -0.58937  -0.56748  -0.54156
 Alpha  occ. eigenvalues --   -0.53189  -0.52257  -0.52159  -0.51221  -0.50729
 Alpha  occ. eigenvalues --   -0.49245  -0.48085  -0.47431  -0.46988  -0.46480
 Alpha  occ. eigenvalues --   -0.46154  -0.45369  -0.44781  -0.44318  -0.43475
 Alpha  occ. eigenvalues --   -0.42973  -0.42773  -0.41785  -0.40757  -0.40386
 Alpha  occ. eigenvalues --   -0.39786  -0.39413  -0.39244  -0.37288  -0.36832
 Alpha  occ. eigenvalues --   -0.36429  -0.35916  -0.35699  -0.35645  -0.35017
 Alpha  occ. eigenvalues --   -0.34647  -0.33951  -0.33738  -0.33393  -0.32843
 Alpha  occ. eigenvalues --   -0.31583  -0.30451  -0.30015  -0.27783  -0.27175
 Alpha  occ. eigenvalues --   -0.26805  -0.25529  -0.23944  -0.23618
 Alpha virt. eigenvalues --   -0.10125  -0.08170  -0.06558  -0.04642  -0.03890
 Alpha virt. eigenvalues --   -0.00624   0.00326   0.02670   0.03719   0.04779
 Alpha virt. eigenvalues --    0.05226   0.05327   0.06130   0.06432   0.06903
 Alpha virt. eigenvalues --    0.07066   0.07921   0.08326   0.09278   0.09654
 Alpha virt. eigenvalues --    0.10150   0.10505   0.11050   0.11776   0.12072
 Alpha virt. eigenvalues --    0.12368   0.12606   0.13403   0.13571   0.13895
 Alpha virt. eigenvalues --    0.14564   0.14928   0.15344   0.15588   0.16294
 Alpha virt. eigenvalues --    0.16491   0.17194   0.17368   0.18155   0.18524
 Alpha virt. eigenvalues --    0.18709   0.18860   0.19854   0.20013   0.20129
 Alpha virt. eigenvalues --    0.20585   0.21001   0.21556   0.21675   0.21914
 Alpha virt. eigenvalues --    0.22240   0.22518   0.22807   0.23079   0.23733
 Alpha virt. eigenvalues --    0.24060   0.24520   0.25071   0.25792   0.26075
 Alpha virt. eigenvalues --    0.26440   0.26562   0.26891   0.27434   0.27616
 Alpha virt. eigenvalues --    0.27736   0.28343   0.28547   0.29027   0.29830
 Alpha virt. eigenvalues --    0.30242   0.30361   0.30901   0.31231   0.32296
 Alpha virt. eigenvalues --    0.32548   0.32742   0.33173   0.33519   0.34043
 Alpha virt. eigenvalues --    0.34369   0.34445   0.34639   0.35014   0.35347
 Alpha virt. eigenvalues --    0.36047   0.36555   0.36683   0.36909   0.37688
 Alpha virt. eigenvalues --    0.37873   0.38414   0.38705   0.38954   0.39332
 Alpha virt. eigenvalues --    0.39603   0.39724   0.40637   0.40752   0.41370
 Alpha virt. eigenvalues --    0.41820   0.41924   0.42064   0.42122   0.42425
 Alpha virt. eigenvalues --    0.42718   0.43176   0.43482   0.44017   0.44415
 Alpha virt. eigenvalues --    0.44777   0.45693   0.46186   0.46662   0.46745
 Alpha virt. eigenvalues --    0.47114   0.47532   0.47891   0.48276   0.48968
 Alpha virt. eigenvalues --    0.49164   0.49685   0.49768   0.50777   0.51063
 Alpha virt. eigenvalues --    0.51265   0.51986   0.52751   0.53240   0.53599
 Alpha virt. eigenvalues --    0.54235   0.54542   0.55474   0.55682   0.56289
 Alpha virt. eigenvalues --    0.56364   0.56772   0.58194   0.58529   0.58821
 Alpha virt. eigenvalues --    0.59385   0.59779   0.60021   0.60983   0.61356
 Alpha virt. eigenvalues --    0.62437   0.62845   0.63243   0.63689   0.64252
 Alpha virt. eigenvalues --    0.64422   0.64786   0.65053   0.66025   0.66440
 Alpha virt. eigenvalues --    0.66947   0.67282   0.67419   0.68065   0.68190
 Alpha virt. eigenvalues --    0.68658   0.68947   0.69230   0.69630   0.69714
 Alpha virt. eigenvalues --    0.70413   0.70505   0.71087   0.71280   0.72359
 Alpha virt. eigenvalues --    0.72900   0.73528   0.73778   0.74308   0.74681
 Alpha virt. eigenvalues --    0.74778   0.75391   0.75984   0.77026   0.77066
 Alpha virt. eigenvalues --    0.77185   0.77686   0.77789   0.78418   0.79443
 Alpha virt. eigenvalues --    0.80337   0.80769   0.81162   0.81489   0.82083
 Alpha virt. eigenvalues --    0.82322   0.82635   0.83349   0.83955   0.84245
 Alpha virt. eigenvalues --    0.84431   0.84806   0.85398   0.85561   0.86319
 Alpha virt. eigenvalues --    0.86539   0.86838   0.87067   0.87720   0.88128
 Alpha virt. eigenvalues --    0.88933   0.89349   0.89688   0.90304   0.90774
 Alpha virt. eigenvalues --    0.90818   0.91176   0.91812   0.91998   0.92920
 Alpha virt. eigenvalues --    0.93074   0.93725   0.94082   0.94591   0.95591
 Alpha virt. eigenvalues --    0.96499   0.96871   0.97138   0.98006   0.98682
 Alpha virt. eigenvalues --    0.99041   0.99288   1.00040   1.00804   1.01278
 Alpha virt. eigenvalues --    1.01835   1.02873   1.03465   1.04190   1.04882
 Alpha virt. eigenvalues --    1.05098   1.05631   1.06036   1.06226   1.07341
 Alpha virt. eigenvalues --    1.07565   1.07629   1.07925   1.09239   1.09795
 Alpha virt. eigenvalues --    1.10777   1.11280   1.11425   1.12332   1.13602
 Alpha virt. eigenvalues --    1.13867   1.14643   1.15273   1.15707   1.16604
 Alpha virt. eigenvalues --    1.17236   1.17726   1.18193   1.18643   1.19473
 Alpha virt. eigenvalues --    1.20013   1.20358   1.20687   1.20969   1.21343
 Alpha virt. eigenvalues --    1.21974   1.22964   1.23797   1.23956   1.24099
 Alpha virt. eigenvalues --    1.24600   1.25619   1.25790   1.26695   1.26754
 Alpha virt. eigenvalues --    1.27094   1.27560   1.28631   1.29113   1.29349
 Alpha virt. eigenvalues --    1.29568   1.29920   1.30014   1.30522   1.31136
 Alpha virt. eigenvalues --    1.31432   1.31926   1.32385   1.33166   1.33420
 Alpha virt. eigenvalues --    1.33448   1.34513   1.34861   1.35640   1.36154
 Alpha virt. eigenvalues --    1.36446   1.37048   1.37719   1.37938   1.38836
 Alpha virt. eigenvalues --    1.39545   1.39950   1.40587   1.40997   1.41251
 Alpha virt. eigenvalues --    1.41590   1.41621   1.42024   1.43178   1.43749
 Alpha virt. eigenvalues --    1.44019   1.44661   1.45613   1.45820   1.45998
 Alpha virt. eigenvalues --    1.46381   1.47144   1.47372   1.48279   1.48900
 Alpha virt. eigenvalues --    1.49465   1.49641   1.50259   1.50664   1.51448
 Alpha virt. eigenvalues --    1.51779   1.52562   1.53120   1.53723   1.54294
 Alpha virt. eigenvalues --    1.55010   1.55672   1.55972   1.56663   1.57609
 Alpha virt. eigenvalues --    1.58074   1.59376   1.59845   1.60420   1.60810
 Alpha virt. eigenvalues --    1.61096   1.61884   1.62293   1.62600   1.63254
 Alpha virt. eigenvalues --    1.63640   1.64064   1.65297   1.66050   1.66613
 Alpha virt. eigenvalues --    1.67311   1.67640   1.68468   1.68564   1.69181
 Alpha virt. eigenvalues --    1.70010   1.70392   1.70873   1.71788   1.71989
 Alpha virt. eigenvalues --    1.73350   1.73759   1.73968   1.74686   1.75315
 Alpha virt. eigenvalues --    1.75707   1.76144   1.77402   1.77997   1.78168
 Alpha virt. eigenvalues --    1.79871   1.80255   1.81459   1.81717   1.82217
 Alpha virt. eigenvalues --    1.83238   1.84017   1.85249   1.85601   1.87081
 Alpha virt. eigenvalues --    1.88271   1.89194   1.89754   1.90491   1.91185
 Alpha virt. eigenvalues --    1.92716   1.93444   1.93803   1.94645   1.95283
 Alpha virt. eigenvalues --    1.96704   1.97181   1.98560   1.99842   1.99931
 Alpha virt. eigenvalues --    2.00412   2.01120   2.01628   2.02290   2.02733
 Alpha virt. eigenvalues --    2.03259   2.04054   2.04286   2.05097   2.05538
 Alpha virt. eigenvalues --    2.06147   2.07217   2.08147   2.08874   2.09326
 Alpha virt. eigenvalues --    2.09434   2.09850   2.11308   2.12169   2.12771
 Alpha virt. eigenvalues --    2.12801   2.14580   2.16071   2.16788   2.18513
 Alpha virt. eigenvalues --    2.19701   2.20040   2.20614   2.21246   2.22413
 Alpha virt. eigenvalues --    2.23000   2.24348   2.24580   2.25039   2.25262
 Alpha virt. eigenvalues --    2.25873   2.27260   2.28218   2.29844   2.30019
 Alpha virt. eigenvalues --    2.31251   2.32161   2.32910   2.33065   2.33244
 Alpha virt. eigenvalues --    2.33869   2.34861   2.35159   2.35922   2.36873
 Alpha virt. eigenvalues --    2.37383   2.38709   2.39218   2.40461   2.40836
 Alpha virt. eigenvalues --    2.42013   2.42399   2.43177   2.43774   2.43929
 Alpha virt. eigenvalues --    2.44947   2.45969   2.47562   2.48033   2.49022
 Alpha virt. eigenvalues --    2.50283   2.52117   2.52397   2.52820   2.54614
 Alpha virt. eigenvalues --    2.56039   2.57023   2.59108   2.60189   2.61297
 Alpha virt. eigenvalues --    2.61747   2.62669   2.64343   2.65182   2.65690
 Alpha virt. eigenvalues --    2.67331   2.67562   2.68338   2.68818   2.69902
 Alpha virt. eigenvalues --    2.70432   2.70663   2.71400   2.71868   2.72374
 Alpha virt. eigenvalues --    2.72962   2.73386   2.74148   2.74609   2.74850
 Alpha virt. eigenvalues --    2.76537   2.77180   2.77533   2.78239   2.78878
 Alpha virt. eigenvalues --    2.80631   2.80835   2.81324   2.81432   2.82339
 Alpha virt. eigenvalues --    2.83341   2.83816   2.84916   2.85848   2.86854
 Alpha virt. eigenvalues --    2.88252   2.88780   2.88973   2.89275   2.89783
 Alpha virt. eigenvalues --    2.89838   2.90221   2.90590   2.91234   2.92100
 Alpha virt. eigenvalues --    2.93411   2.93977   2.95088   2.95186   2.95731
 Alpha virt. eigenvalues --    2.96234   2.96605   2.97102   2.98143   2.98845
 Alpha virt. eigenvalues --    2.99105   2.99300   2.99826   3.00498   3.00881
 Alpha virt. eigenvalues --    3.01172   3.01730   3.01858   3.02208   3.02504
 Alpha virt. eigenvalues --    3.02788   3.03054   3.03576   3.03647   3.04486
 Alpha virt. eigenvalues --    3.05263   3.05775   3.05845   3.06247   3.06618
 Alpha virt. eigenvalues --    3.06929   3.07476   3.07981   3.08092   3.08709
 Alpha virt. eigenvalues --    3.09245   3.09465   3.09945   3.10295   3.10617
 Alpha virt. eigenvalues --    3.10978   3.12015   3.12446   3.12953   3.13738
 Alpha virt. eigenvalues --    3.14252   3.14500   3.14930   3.15583   3.15737
 Alpha virt. eigenvalues --    3.17136   3.17575   3.18064   3.18710   3.19286
 Alpha virt. eigenvalues --    3.19393   3.19790   3.20141   3.20758   3.20914
 Alpha virt. eigenvalues --    3.21439   3.21523   3.21926   3.22896   3.23577
 Alpha virt. eigenvalues --    3.23749   3.24696   3.25006   3.25627   3.26072
 Alpha virt. eigenvalues --    3.26243   3.27743   3.28443   3.29051   3.29572
 Alpha virt. eigenvalues --    3.30758   3.31139   3.31753   3.32319   3.32592
 Alpha virt. eigenvalues --    3.33766   3.34379   3.34530   3.35352   3.36173
 Alpha virt. eigenvalues --    3.36530   3.36840   3.37286   3.37629   3.38441
 Alpha virt. eigenvalues --    3.38565   3.39264   3.39461   3.39551   3.40513
 Alpha virt. eigenvalues --    3.40809   3.41063   3.41727   3.42405   3.43521
 Alpha virt. eigenvalues --    3.43937   3.44513   3.44886   3.45629   3.46546
 Alpha virt. eigenvalues --    3.47097   3.47715   3.48045   3.48385   3.49663
 Alpha virt. eigenvalues --    3.49866   3.50525   3.50772   3.50904   3.51611
 Alpha virt. eigenvalues --    3.52185   3.52513   3.52699   3.52853   3.54925
 Alpha virt. eigenvalues --    3.55239   3.55525   3.56073   3.56497   3.57692
 Alpha virt. eigenvalues --    3.59149   3.60292   3.60512   3.60798   3.61145
 Alpha virt. eigenvalues --    3.62282   3.63473   3.64758   3.64903   3.65110
 Alpha virt. eigenvalues --    3.65745   3.67304   3.67752   3.68284   3.69882
 Alpha virt. eigenvalues --    3.70480   3.71852   3.72399   3.72560   3.73455
 Alpha virt. eigenvalues --    3.74344   3.74510   3.74986   3.75477   3.76449
 Alpha virt. eigenvalues --    3.76765   3.78064   3.78528   3.79420   3.79932
 Alpha virt. eigenvalues --    3.80726   3.80850   3.82981   3.84020   3.84441
 Alpha virt. eigenvalues --    3.84523   3.85173   3.85464   3.85931   3.86484
 Alpha virt. eigenvalues --    3.87352   3.88617   3.89840   3.91021   3.91405
 Alpha virt. eigenvalues --    3.92252   3.93878   3.94693   3.95481   3.95937
 Alpha virt. eigenvalues --    3.96469   3.96721   3.97690   3.98109   3.98511
 Alpha virt. eigenvalues --    3.99557   4.00154   4.00863   4.02719   4.03411
 Alpha virt. eigenvalues --    4.04397   4.05156   4.06242   4.06685   4.07467
 Alpha virt. eigenvalues --    4.08474   4.09094   4.09309   4.09656   4.09869
 Alpha virt. eigenvalues --    4.10809   4.11901   4.12628   4.13227   4.14674
 Alpha virt. eigenvalues --    4.15614   4.16142   4.16829   4.16924   4.17457
 Alpha virt. eigenvalues --    4.17619   4.19008   4.19897   4.20318   4.20629
 Alpha virt. eigenvalues --    4.20914   4.21361   4.21695   4.21995   4.22475
 Alpha virt. eigenvalues --    4.24709   4.24777   4.26200   4.26741   4.26839
 Alpha virt. eigenvalues --    4.27250   4.27714   4.28946   4.29455   4.29493
 Alpha virt. eigenvalues --    4.29973   4.30435   4.30505   4.32481   4.33167
 Alpha virt. eigenvalues --    4.34149   4.34555   4.35273   4.36342   4.37014
 Alpha virt. eigenvalues --    4.37614   4.38979   4.39530   4.40291   4.41002
 Alpha virt. eigenvalues --    4.42132   4.44100   4.44348   4.44819   4.45010
 Alpha virt. eigenvalues --    4.45206   4.45533   4.46798   4.47403   4.49776
 Alpha virt. eigenvalues --    4.50651   4.51155   4.51979   4.53983   4.54972
 Alpha virt. eigenvalues --    4.55827   4.55926   4.61214   4.61733   4.62904
 Alpha virt. eigenvalues --    4.64384   4.64472   4.64635   4.65060   4.65434
 Alpha virt. eigenvalues --    4.65907   4.68621   4.69341   4.70123   4.70657
 Alpha virt. eigenvalues --    4.71747   4.71832   4.73557   4.74015   4.76802
 Alpha virt. eigenvalues --    4.76871   4.78696   4.79465   4.80920   4.81360
 Alpha virt. eigenvalues --    4.82420   4.86342   4.87256   4.87893   4.89671
 Alpha virt. eigenvalues --    4.92289   4.92846   4.92974   4.93662   4.95137
 Alpha virt. eigenvalues --    4.96575   4.97464   4.97981   5.00354   5.01793
 Alpha virt. eigenvalues --    5.03705   5.04412   5.05445   5.07161   5.08366
 Alpha virt. eigenvalues --    5.09866   5.11007   5.11407   5.12018   5.12210
 Alpha virt. eigenvalues --    5.12462   5.13178   5.13953   5.14640   5.14802
 Alpha virt. eigenvalues --    5.15420   5.15625   5.15779   5.16293   5.16442
 Alpha virt. eigenvalues --    5.17818   5.18653   5.18827   5.20552   5.21502
 Alpha virt. eigenvalues --    5.21834   5.22775   5.24108   5.25176   5.25853
 Alpha virt. eigenvalues --    5.26882   5.27960   5.28706   5.29750   5.30328
 Alpha virt. eigenvalues --    5.30426   5.31350   5.31674   5.32876   5.33626
 Alpha virt. eigenvalues --    5.34217   5.35595   5.36828   5.37239   5.37840
 Alpha virt. eigenvalues --    5.39082   5.41318   5.41724   5.48289   5.48899
 Alpha virt. eigenvalues --    5.50018   5.50634   5.53811   5.55298   5.56772
 Alpha virt. eigenvalues --    5.58576   5.58791   5.59902   5.60335   5.60934
 Alpha virt. eigenvalues --    5.61647   5.61779   5.62163   5.63272   5.63975
 Alpha virt. eigenvalues --    5.68072   5.68799   5.71378   5.73150   5.79022
 Alpha virt. eigenvalues --    5.79856   5.83124   5.87882   5.88658   5.90289
 Alpha virt. eigenvalues --    5.97563   6.03216   6.05385   6.07286   6.09676
 Alpha virt. eigenvalues --    6.10545   6.29674   6.30965   6.32646   6.32791
 Alpha virt. eigenvalues --    6.35594   6.37557   6.43967   6.44427   6.49336
 Alpha virt. eigenvalues --    6.51444   6.69086   6.70370   6.70582   6.71419
 Alpha virt. eigenvalues --    6.71971   6.73834   6.76747   6.77220   6.78585
 Alpha virt. eigenvalues --    6.79087   6.88493   6.92511   6.94250   6.95906
 Alpha virt. eigenvalues --    6.98193   7.00096   7.15983   7.18176   7.43777
 Alpha virt. eigenvalues --    7.47970   7.75881   7.76994   7.80103   7.85073
 Alpha virt. eigenvalues --    9.35687   9.42315   9.62643   9.65275  10.14317
 Alpha virt. eigenvalues --   10.16892  22.54066  22.56010  22.80162  22.87246
 Alpha virt. eigenvalues --   23.00830  23.01282  23.09189  23.10846  23.13483
 Alpha virt. eigenvalues --   23.14083  23.17246  23.17608  23.23436  23.23775
 Alpha virt. eigenvalues --   23.28286  23.30076  23.34773  23.40870  23.66892
 Alpha virt. eigenvalues --   23.71545  24.12824  24.24602  32.19901  34.47703
 Alpha virt. eigenvalues --   34.52300  34.75840  42.75283  43.78926  43.86087
 Alpha virt. eigenvalues --   44.01437  44.06014 117.78829
          Condensed to atoms (all electrons):
               1          2          3          4          5          6
     1  C    4.918878   0.521527  -0.060969  -0.026985  -0.050445   0.461859
     2  C    0.521527   5.195619   0.434179  -0.069204  -0.062336  -0.023085
     3  C   -0.060969   0.434179   5.934316   0.174428  -0.057284  -0.052872
     4  C   -0.026985  -0.069204   0.174428   5.261622   0.425223  -0.045379
     5  C   -0.050445  -0.062336  -0.057284   0.425223   4.979066   0.547395
     6  C    0.461859  -0.023085  -0.052872  -0.045379   0.547395   4.885607
     7  H    0.414443  -0.028754   0.004825   0.000505   0.004946  -0.028646
     8  H   -0.022956   0.415847  -0.015531   0.004765  -0.000511   0.005452
     9  C    0.008280  -0.170246  -0.337452   0.175534   0.037656  -0.015689
    10  C   -0.001735   0.035221   0.167658   0.262476  -0.093959   0.010349
    11  H    0.005234  -0.000555   0.008606  -0.029881   0.408424  -0.024218
    12  H   -0.030707   0.005648   0.000454   0.004610  -0.028458   0.414708
    13  C   -0.000109  -0.016932  -0.254484   0.123160   0.014231  -0.001399
    14  C   -0.001182   0.062725   0.306820  -0.271858  -0.008652   0.001528
    15  H    0.000211  -0.000537   0.010216  -0.038853  -0.000639  -0.000778
    16  C   -0.005286  -0.107336  -0.178261   0.022864  -0.000892  -0.001330
    17  C   -0.000496   0.015412   0.008614  -0.010854  -0.000649   0.000297
    18  C    0.003465  -0.004428   0.012433   0.013696   0.000731  -0.000585
    19  C   -0.000008  -0.001315   0.004723  -0.000085   0.000002  -0.000007
    20  C   -0.000135  -0.003296   0.009242   0.001250   0.000024  -0.000033
    21  C    0.002703  -0.015546  -0.001216  -0.004416  -0.000231   0.000051
    22  C    0.000037   0.000935  -0.001792  -0.000024  -0.000004   0.000006
    23  C   -0.000069  -0.000231   0.000690   0.000010  -0.000001   0.000001
    24  C    0.000569   0.002459   0.002791  -0.000086  -0.000046   0.000018
    25  H    0.000216  -0.004600  -0.001942   0.001974  -0.000068   0.000209
    26  H    0.000000   0.000013  -0.000019  -0.000001  -0.000000   0.000000
    27  C    0.000026   0.000090  -0.000624  -0.000029  -0.000000   0.000001
    28  H   -0.000000   0.000003  -0.000002  -0.000000  -0.000000   0.000000
    29  H    0.000019   0.000065   0.000099   0.000015   0.000002  -0.000005
    30  H    0.000000   0.000000  -0.000001  -0.000000   0.000000  -0.000000
    31  S    0.000031  -0.000146   0.021955  -0.003367  -0.000020  -0.000008
    32  O    0.000000   0.000266   0.003682  -0.001066  -0.000005   0.000000
    33  O    0.000000   0.000007  -0.001245   0.000893   0.000007  -0.000000
    34  S    0.000009   0.000759  -0.020616   0.002732   0.000030   0.000022
    35  O   -0.000703   0.008205  -0.005536   0.006710  -0.000741   0.000344
    36  O    0.000000   0.000012   0.000251   0.000008  -0.000000   0.000000
    37  N   -0.000006   0.000374   0.002655  -0.000627  -0.000014   0.000003
    38  H    0.000000  -0.000015  -0.000005  -0.000002   0.000000  -0.000000
    39  H   -0.000007  -0.000026  -0.004830   0.012093  -0.000282   0.000019
    40  I    0.000001  -0.000024   0.000080   0.000016   0.000001  -0.000000
               7          8          9         10         11         12
     1  C    0.414443  -0.022956   0.008280  -0.001735   0.005234  -0.030707
     2  C   -0.028754   0.415847  -0.170246   0.035221  -0.000555   0.005648
     3  C    0.004825  -0.015531  -0.337452   0.167658   0.008606   0.000454
     4  C    0.000505   0.004765   0.175534   0.262476  -0.029881   0.004610
     5  C    0.004946  -0.000511   0.037656  -0.093959   0.408424  -0.028458
     6  C   -0.028646   0.005452  -0.015689   0.010349  -0.024218   0.414708
     7  H    0.481135  -0.003118  -0.000343   0.000046  -0.000304  -0.002779
     8  H   -0.003118   0.471557  -0.014082   0.000032   0.000062  -0.000306
     9  C   -0.000343  -0.014082   7.060324  -0.260893  -0.000461   0.000133
    10  C    0.000046   0.000032  -0.260893   5.141442  -0.000080  -0.000731
    11  H   -0.000304   0.000062  -0.000461  -0.000080   0.482274  -0.003616
    12  H   -0.002779  -0.000306   0.000133  -0.000731  -0.003616   0.483691
    13  C    0.000004  -0.000175   0.191782   0.319455  -0.001043   0.000038
    14  C    0.000025  -0.000105  -0.234518   0.209297   0.000153  -0.000008
    15  H   -0.000002   0.000017  -0.002316   0.420674   0.005673  -0.000047
    16  C    0.000101  -0.000843   0.016085  -0.013240   0.000067  -0.000004
    17  C   -0.000034  -0.000409  -0.356556   0.003978   0.000000   0.000000
    18  C    0.000081  -0.003620  -0.129743  -0.001899  -0.000005  -0.000001
    19  C    0.000001   0.000465   0.003152   0.000109  -0.000000  -0.000000
    20  C    0.000017   0.002429   0.025358  -0.000145  -0.000000  -0.000000
    21  C    0.000072  -0.005030  -0.111423   0.001317   0.000004   0.000001
    22  C   -0.000003   0.000026  -0.005925  -0.000002   0.000000  -0.000000
    23  C    0.000002  -0.000026  -0.001287  -0.000006  -0.000000   0.000000
    24  C    0.000019   0.000216  -0.005005   0.000002  -0.000000   0.000000
    25  H   -0.000010   0.000299  -0.001961   0.000276   0.000004  -0.000001
    26  H   -0.000000   0.000004   0.000203   0.000000   0.000000  -0.000000
    27  C   -0.000006   0.000228  -0.001109   0.000008   0.000000  -0.000000
    28  H   -0.000000   0.000005   0.000056   0.000000   0.000000   0.000000
    29  H    0.000001  -0.000012   0.000083  -0.000003  -0.000000   0.000000
    30  H    0.000000  -0.000001  -0.000005  -0.000000   0.000000  -0.000000
    31  S    0.000000   0.000009  -0.025058   0.005678  -0.000000   0.000000
    32  O   -0.000000   0.000019  -0.033496   0.000625   0.000000  -0.000000
    33  O    0.000000  -0.000000   0.015454  -0.003530   0.000000  -0.000000
    34  S   -0.000001  -0.000061  -0.005381  -0.002007  -0.000000   0.000000
    35  O   -0.000007   0.000218  -0.016953  -0.002513  -0.000007   0.000001
    36  O    0.000000   0.000001  -0.000281   0.000000  -0.000000   0.000000
    37  N   -0.000000   0.000012  -0.023406  -0.000049   0.000000   0.000000
    38  H    0.000000  -0.000005  -0.000282   0.000000  -0.000000  -0.000000
    39  H    0.000000  -0.000003   0.013218  -0.040352  -0.000022  -0.000000
    40  I    0.000000  -0.000001   0.003367   0.000142  -0.000000  -0.000000
              13         14         15         16         17         18
     1  C   -0.000109  -0.001182   0.000211  -0.005286  -0.000496   0.003465
     2  C   -0.016932   0.062725  -0.000537  -0.107336   0.015412  -0.004428
     3  C   -0.254484   0.306820   0.010216  -0.178261   0.008614   0.012433
     4  C    0.123160  -0.271858  -0.038853   0.022864  -0.010854   0.013696
     5  C    0.014231  -0.008652  -0.000639  -0.000892  -0.000649   0.000731
     6  C   -0.001399   0.001528  -0.000778  -0.001330   0.000297  -0.000585
     7  H    0.000004   0.000025  -0.000002   0.000101  -0.000034   0.000081
     8  H   -0.000175  -0.000105   0.000017  -0.000843  -0.000409  -0.003620
     9  C    0.191782  -0.234518  -0.002316   0.016085  -0.356556  -0.129743
    10  C    0.319455   0.209297   0.420674  -0.013240   0.003978  -0.001899
    11  H   -0.001043   0.000153   0.005673   0.000067   0.000000  -0.000005
    12  H    0.000038  -0.000008  -0.000047  -0.000004   0.000000  -0.000001
    13  C    5.321047  -0.005801  -0.035425   0.028317  -0.008443   0.003645
    14  C   -0.005801   6.181952   0.011457  -0.314469   0.028759  -0.006218
    15  H   -0.035425   0.011457   0.480471   0.000209   0.000018  -0.000027
    16  C    0.028317  -0.314469   0.000209   7.231328  -0.226855  -0.431185
    17  C   -0.008443   0.028759   0.000018  -0.226855   6.198478   0.300321
    18  C    0.003645  -0.006218  -0.000027  -0.431185   0.300321   6.028745
    19  C   -0.000540  -0.000424  -0.000000   0.134944   0.064794  -0.242777
    20  C    0.000494  -0.006255  -0.000001   0.201064  -0.291295   0.151396
    21  C   -0.002605   0.016288   0.000015  -0.179189   0.081227   0.417764
    22  C    0.000009   0.001321   0.000000  -0.253418   0.178377   0.164818
    23  C    0.000015  -0.000417  -0.000000   0.043146  -0.011799  -0.058659
    24  C    0.000047  -0.000622   0.000000   0.012925  -0.002994  -0.059234
    25  H    0.000186   0.000316   0.000007  -0.015247   0.000331  -0.016368
    26  H   -0.000000   0.000005   0.000000  -0.003543   0.011997   0.011774
    27  C   -0.000014   0.000275   0.000000  -0.015992   0.002057  -0.055998
    28  H   -0.000000  -0.000001   0.000000  -0.000686   0.000288   0.009219
    29  H    0.000002  -0.000031  -0.000000  -0.000447   0.000029   0.005172
    30  H   -0.000000   0.000000   0.000000   0.000135  -0.000003   0.000452
    31  S   -0.063477   0.332296  -0.000164  -0.013242   0.002010  -0.014823
    32  O    0.002166  -0.029671   0.000008   0.005711  -0.007727  -0.012791
    33  O    0.015662  -0.098889  -0.000100   0.000630  -0.000934   0.000334
    34  S    0.008332   0.009051  -0.000007  -0.015411   0.307260   0.020149
    35  O    0.009636  -0.013927  -0.000029  -0.034514  -0.041691   0.005719
    36  O    0.000074  -0.000584  -0.000000   0.012727  -0.093646  -0.000709
    37  N    0.010764  -0.033774   0.000000  -0.053791  -0.013607   0.006881
    38  H   -0.000004  -0.000080  -0.000000   0.012561  -0.056185  -0.005329
    39  H    0.436416  -0.059677  -0.004535  -0.000462   0.000036  -0.000041
    40  I   -0.001130  -0.002774  -0.000001   0.009474   0.000122   0.000035
              19         20         21         22         23         24
     1  C   -0.000008  -0.000135   0.002703   0.000037  -0.000069   0.000569
     2  C   -0.001315  -0.003296  -0.015546   0.000935  -0.000231   0.002459
     3  C    0.004723   0.009242  -0.001216  -0.001792   0.000690   0.002791
     4  C   -0.000085   0.001250  -0.004416  -0.000024   0.000010  -0.000086
     5  C    0.000002   0.000024  -0.000231  -0.000004  -0.000001  -0.000046
     6  C   -0.000007  -0.000033   0.000051   0.000006   0.000001   0.000018
     7  H    0.000001   0.000017   0.000072  -0.000003   0.000002   0.000019
     8  H    0.000465   0.002429  -0.005030   0.000026  -0.000026   0.000216
     9  C    0.003152   0.025358  -0.111423  -0.005925  -0.001287  -0.005005
    10  C    0.000109  -0.000145   0.001317  -0.000002  -0.000006   0.000002
    11  H   -0.000000  -0.000000   0.000004   0.000000  -0.000000  -0.000000
    12  H   -0.000000  -0.000000   0.000001  -0.000000   0.000000   0.000000
    13  C   -0.000540   0.000494  -0.002605   0.000009   0.000015   0.000047
    14  C   -0.000424  -0.006255   0.016288   0.001321  -0.000417  -0.000622
    15  H   -0.000000  -0.000001   0.000015   0.000000  -0.000000   0.000000
    16  C    0.134944   0.201064  -0.179189  -0.253418   0.043146   0.012925
    17  C    0.064794  -0.291295   0.081227   0.178377  -0.011799  -0.002994
    18  C   -0.242777   0.151396   0.417764   0.164818  -0.058659  -0.059234
    19  C    5.297905   0.109524  -0.018059   0.339663   0.019026   0.001016
    20  C    0.109524   5.289402  -0.087488   0.270614   0.424951  -0.026348
    21  C   -0.018059  -0.087488   5.226991   0.036470  -0.070700   0.513566
    22  C    0.339663   0.270614   0.036470   5.138061  -0.101022  -0.003329
    23  C    0.019026   0.424951  -0.070700  -0.101022   4.993852  -0.044628
    24  C    0.001016  -0.026348   0.513566  -0.003329  -0.044628   4.924523
    25  H   -0.000270   0.004801   0.417278   0.000115  -0.000704  -0.024151
    26  H   -0.037585  -0.038759  -0.000419   0.422274  -0.001512   0.000173
    27  C   -0.002038  -0.045446  -0.018071   0.011619   0.542058   0.457824
    28  H   -0.001189  -0.030511  -0.000484  -0.000025   0.408298   0.005264
    29  H    0.000004   0.000502  -0.029000   0.000049   0.005067   0.414579
    30  H    0.000031   0.004648   0.005669  -0.000715  -0.028768  -0.030881
    31  S    0.007482   0.002034   0.001072  -0.001830  -0.000009  -0.000021
    32  O    0.005058   0.005176   0.011230  -0.001716  -0.000741  -0.000878
    33  O    0.000026  -0.000002   0.000022   0.000004  -0.000000  -0.000000
    34  S   -0.042071  -0.003320   0.000144   0.003076  -0.000083   0.000005
    35  O    0.003490  -0.001230   0.000258   0.000900  -0.000006  -0.000001
    36  O    0.009866   0.000565   0.000011  -0.002630   0.000005   0.000000
    37  N    0.006042  -0.002433   0.000789   0.003000  -0.000045  -0.000015
    38  H    0.436677   0.012253  -0.000070  -0.039334  -0.000175   0.000001
    39  H   -0.000004  -0.000001  -0.000023   0.000000   0.000000   0.000001
    40  I   -0.008231   0.000109  -0.000085  -0.000720   0.000001   0.000001
              25         26         27         28         29         30
     1  C    0.000216   0.000000   0.000026  -0.000000   0.000019   0.000000
     2  C   -0.004600   0.000013   0.000090   0.000003   0.000065   0.000000
     3  C   -0.001942  -0.000019  -0.000624  -0.000002   0.000099  -0.000001
     4  C    0.001974  -0.000001  -0.000029  -0.000000   0.000015  -0.000000
     5  C   -0.000068  -0.000000  -0.000000  -0.000000   0.000002   0.000000
     6  C    0.000209   0.000000   0.000001   0.000000  -0.000005  -0.000000
     7  H   -0.000010  -0.000000  -0.000006  -0.000000   0.000001   0.000000
     8  H    0.000299   0.000004   0.000228   0.000005  -0.000012  -0.000001
     9  C   -0.001961   0.000203  -0.001109   0.000056   0.000083  -0.000005
    10  C    0.000276   0.000000   0.000008   0.000000  -0.000003  -0.000000
    11  H    0.000004   0.000000   0.000000   0.000000  -0.000000   0.000000
    12  H   -0.000001  -0.000000  -0.000000   0.000000   0.000000  -0.000000
    13  C    0.000186  -0.000000  -0.000014  -0.000000   0.000002  -0.000000
    14  C    0.000316   0.000005   0.000275  -0.000001  -0.000031   0.000000
    15  H    0.000007   0.000000   0.000000   0.000000  -0.000000   0.000000
    16  C   -0.015247  -0.003543  -0.015992  -0.000686  -0.000447   0.000135
    17  C    0.000331   0.011997   0.002057   0.000288   0.000029  -0.000003
    18  C   -0.016368   0.011774  -0.055998   0.009219   0.005172   0.000452
    19  C   -0.000270  -0.037585  -0.002038  -0.001189   0.000004   0.000031
    20  C    0.004801  -0.038759  -0.045446  -0.030511   0.000502   0.004648
    21  C    0.417278  -0.000419  -0.018071  -0.000484  -0.029000   0.005669
    22  C    0.000115   0.422274   0.011619  -0.000025   0.000049  -0.000715
    23  C   -0.000704  -0.001512   0.542058   0.408298   0.005067  -0.028768
    24  C   -0.024151   0.000173   0.457824   0.005264   0.414579  -0.030881
    25  H    0.473274   0.000018   0.005706   0.000062  -0.003196  -0.000305
    26  H    0.000018   0.480826  -0.000726   0.005764  -0.000002  -0.000046
    27  C    0.005706  -0.000726   4.891573  -0.024269  -0.029069   0.415092
    28  H    0.000062   0.005764  -0.024269   0.482707  -0.000303  -0.003646
    29  H   -0.003196  -0.000002  -0.029069  -0.000303   0.481772  -0.002804
    30  H   -0.000305  -0.000046   0.415092  -0.003646  -0.002804   0.484290
    31  S   -0.000034  -0.000007   0.000028  -0.000000  -0.000001   0.000000
    32  O    0.000344  -0.000024   0.000399  -0.000006  -0.000011   0.000001
    33  O    0.000003  -0.000000   0.000000  -0.000000  -0.000000   0.000000
    34  S    0.000027  -0.000101  -0.000000   0.000001   0.000000   0.000000
    35  O    0.000024   0.000008   0.000000   0.000000   0.000000  -0.000000
    36  O    0.000000  -0.000082  -0.000000   0.000000   0.000000  -0.000000
    37  N    0.000022   0.000025   0.000005   0.000000  -0.000000   0.000000
    38  H   -0.000004  -0.004635   0.000011  -0.000025   0.000000  -0.000000
    39  H   -0.000009  -0.000000  -0.000000  -0.000000   0.000000  -0.000000
    40  I   -0.000002  -0.000012   0.000001  -0.000001   0.000000  -0.000000
              31         32         33         34         35         36
     1  C    0.000031   0.000000   0.000000   0.000009  -0.000703   0.000000
     2  C   -0.000146   0.000266   0.000007   0.000759   0.008205   0.000012
     3  C    0.021955   0.003682  -0.001245  -0.020616  -0.005536   0.000251
     4  C   -0.003367  -0.001066   0.000893   0.002732   0.006710   0.000008
     5  C   -0.000020  -0.000005   0.000007   0.000030  -0.000741  -0.000000
     6  C   -0.000008   0.000000  -0.000000   0.000022   0.000344   0.000000
     7  H    0.000000  -0.000000   0.000000  -0.000001  -0.000007   0.000000
     8  H    0.000009   0.000019  -0.000000  -0.000061   0.000218   0.000001
     9  C   -0.025058  -0.033496   0.015454  -0.005381  -0.016953  -0.000281
    10  C    0.005678   0.000625  -0.003530  -0.002007  -0.002513   0.000000
    11  H   -0.000000   0.000000   0.000000  -0.000000  -0.000007  -0.000000
    12  H    0.000000  -0.000000  -0.000000   0.000000   0.000001   0.000000
    13  C   -0.063477   0.002166   0.015662   0.008332   0.009636   0.000074
    14  C    0.332296  -0.029671  -0.098889   0.009051  -0.013927  -0.000584
    15  H   -0.000164   0.000008  -0.000100  -0.000007  -0.000029  -0.000000
    16  C   -0.013242   0.005711   0.000630  -0.015411  -0.034514   0.012727
    17  C    0.002010  -0.007727  -0.000934   0.307260  -0.041691  -0.093646
    18  C   -0.014823  -0.012791   0.000334   0.020149   0.005719  -0.000709
    19  C    0.007482   0.005058   0.000026  -0.042071   0.003490   0.009866
    20  C    0.002034   0.005176  -0.000002  -0.003320  -0.001230   0.000565
    21  C    0.001072   0.011230   0.000022   0.000144   0.000258   0.000011
    22  C   -0.001830  -0.001716   0.000004   0.003076   0.000900  -0.002630
    23  C   -0.000009  -0.000741  -0.000000  -0.000083  -0.000006   0.000005
    24  C   -0.000021  -0.000878  -0.000000   0.000005  -0.000001   0.000000
    25  H   -0.000034   0.000344   0.000003   0.000027   0.000024   0.000000
    26  H   -0.000007  -0.000024  -0.000000  -0.000101   0.000008  -0.000082
    27  C    0.000028   0.000399   0.000000  -0.000000   0.000000  -0.000000
    28  H   -0.000000  -0.000006  -0.000000   0.000001   0.000000   0.000000
    29  H   -0.000001  -0.000011  -0.000000   0.000000   0.000000   0.000000
    30  H    0.000000   0.000001   0.000000   0.000000  -0.000000  -0.000000
    31  S   13.492789   0.590809   0.621166   0.000016  -0.001203   0.000447
    32  O    0.590809   8.012499  -0.058167  -0.003181  -0.000135  -0.000016
    33  O    0.621166  -0.058167   8.002614   0.000306   0.000008  -0.000103
    34  S    0.000016  -0.003181   0.000306  13.457738   0.605172   0.619350
    35  O   -0.001203  -0.000135   0.000008   0.605172   8.008339  -0.053572
    36  O    0.000447  -0.000016  -0.000103   0.619350  -0.053572   8.010079
    37  N    0.249910  -0.059553  -0.057178   0.253941  -0.052318  -0.057606
    38  H    0.000237   0.000160   0.000001  -0.004709   0.000402   0.018666
    39  H   -0.006157   0.000592   0.022206   0.000262   0.000110   0.000002
    40  I   -0.025863   0.000781  -0.000587  -0.039104   0.003219  -0.005831
              37         38         39         40
     1  C   -0.000006   0.000000  -0.000007   0.000001
     2  C    0.000374  -0.000015  -0.000026  -0.000024
     3  C    0.002655  -0.000005  -0.004830   0.000080
     4  C   -0.000627  -0.000002   0.012093   0.000016
     5  C   -0.000014   0.000000  -0.000282   0.000001
     6  C    0.000003  -0.000000   0.000019  -0.000000
     7  H   -0.000000   0.000000   0.000000   0.000000
     8  H    0.000012  -0.000005  -0.000003  -0.000001
     9  C   -0.023406  -0.000282   0.013218   0.003367
    10  C   -0.000049   0.000000  -0.040352   0.000142
    11  H    0.000000  -0.000000  -0.000022  -0.000000
    12  H    0.000000  -0.000000  -0.000000  -0.000000
    13  C    0.010764  -0.000004   0.436416  -0.001130
    14  C   -0.033774  -0.000080  -0.059677  -0.002774
    15  H    0.000000  -0.000000  -0.004535  -0.000001
    16  C   -0.053791   0.012561  -0.000462   0.009474
    17  C   -0.013607  -0.056185   0.000036   0.000122
    18  C    0.006881  -0.005329  -0.000041   0.000035
    19  C    0.006042   0.436677  -0.000004  -0.008231
    20  C   -0.002433   0.012253  -0.000001   0.000109
    21  C    0.000789  -0.000070  -0.000023  -0.000085
    22  C    0.003000  -0.039334   0.000000  -0.000720
    23  C   -0.000045  -0.000175   0.000000   0.000001
    24  C   -0.000015   0.000001   0.000001   0.000001
    25  H    0.000022  -0.000004  -0.000009  -0.000002
    26  H    0.000025  -0.004635  -0.000000  -0.000012
    27  C    0.000005   0.000011  -0.000000   0.000001
    28  H    0.000000  -0.000025  -0.000000  -0.000001
    29  H   -0.000000   0.000000   0.000000   0.000000
    30  H    0.000000  -0.000000  -0.000000  -0.000000
    31  S    0.249910   0.000237  -0.006157  -0.025863
    32  O   -0.059553   0.000160   0.000592   0.000781
    33  O   -0.057178   0.000001   0.022206  -0.000587
    34  S    0.253941  -0.004709   0.000262  -0.039104
    35  O   -0.052318   0.000402   0.000110   0.003219
    36  O   -0.057606   0.018666   0.000002  -0.005831
    37  N    6.959964  -0.000735   0.000572   0.205850
    38  H   -0.000735   0.467553   0.000000   0.000152
    39  H    0.000572   0.000000   0.466870  -0.000196
    40  I    0.205850   0.000152  -0.000196  24.647638
 Mulliken charges:
               1
     1  C   -0.135713
     2  C   -0.190754
     3  C   -0.114035
     4  C    0.008131
     5  C   -0.112500
     6  C   -0.133831
     7  H    0.157785
     8  H    0.165131
     9  C    0.203187
    10  C   -0.157642
    11  H    0.149692
    12  H    0.157376
    13  C   -0.093898
    14  C   -0.072330
    15  H    0.154486
    16  C    0.133355
    17  C   -0.080228
    18  C   -0.112388
    19  C   -0.089399
    20  C    0.020843
    21  C   -0.188889
    22  C   -0.158887
    23  C   -0.116234
    24  C   -0.137759
    25  H    0.163381
    26  H    0.154386
    27  C   -0.133607
    28  H    0.149481
    29  H    0.157427
    30  H    0.156857
    31  S    0.827460
    32  O   -0.430341
    33  O   -0.458608
    34  S    0.847673
    35  O   -0.427676
    36  O   -0.457001
    37  N   -0.345649
    38  H    0.162920
    39  H    0.164230
    40  I    0.213572
 Sum of Mulliken charges =  -0.00000
 Mulliken charges with hydrogens summed into heavy atoms:
               1
     1  C    0.022072
     2  C   -0.025623
     3  C   -0.114035
     4  C    0.008131
     5  C    0.037192
     6  C    0.023544
     9  C    0.203187
    10  C   -0.003157
    13  C    0.070332
    14  C   -0.072330
    16  C    0.133355
    17  C   -0.080228
    18  C   -0.112388
    19  C    0.073521
    20  C    0.020843
    21  C   -0.025508
    22  C   -0.004501
    23  C    0.033247
    24  C    0.019667
    27  C    0.023250
    31  S    0.827460
    32  O   -0.430341
    33  O   -0.458608
    34  S    0.847673
    35  O   -0.427676
    36  O   -0.457001
    37  N   -0.345649
    40  I    0.213572
 Electronic spatial extent (au):  <R**2>=          17174.9423
 Charge=             -0.0000 electrons
 Dipole moment (field-independent basis, Debye):
    X=             -3.4979    Y=              5.6228    Z=              1.2568  Tot=              6.7402
 Quadrupole moment (field-independent basis, Debye-Ang):
   XX=           -163.1705   YY=           -138.2464   ZZ=           -201.7255
   XY=            -13.0129   XZ=            -18.4265   YZ=             -1.7222
 Traceless Quadrupole moment (field-independent basis, Debye-Ang):
   XX=              4.5436   YY=             29.4677   ZZ=            -34.0113
   XY=            -13.0129   XZ=            -18.4265   YZ=             -1.7222
 Octapole moment (field-independent basis, Debye-Ang**2):
  XXX=            839.5793  YYY=           -993.0587  ZZZ=           -249.4530  XYY=            271.6374
  XXY=           -324.0254  XXZ=             -3.8520  XZZ=            310.7464  YZZ=           -389.3602
  YYZ=           -100.5524  XYZ=            -45.8202
 Hexadecapole moment (field-independent basis, Debye-Ang**3):
 XXXX=          -6799.9199 YYYY=         -11219.8279 ZZZZ=          -2969.5766 XXXY=           2365.7612
 XXXZ=            557.8080 YYYX=           2314.4534 YYYZ=           -755.0431 ZZZX=            970.2944
 ZZZY=           -229.6324 XXYY=          -3113.3781 XXZZ=          -1538.7444 YYZZ=          -2370.1173
 XXYZ=             99.7664 YYXZ=            180.8424 ZZXY=            681.2148
 N-N= 3.503002666651D+03 E-N=-1.215239154996D+04  KE= 2.028435131118D+03
 No NMR shielding tensors so no spin-rotation constants.
 Leave Link  601 at Thu May 15 11:56:23 2025, MaxMem=  8321499136 cpu:              21.0 elap:               1.4
 (Enter /cm/shared/apps/spack/cpu/opt/spack/linux-centos8-zen/gcc-8.3.1/gaussian-16.C.01-po5bqktfeugvmjyga3v7eigbecnokxng/g16/l9999.exe)
 Unable to Open any file for archive entry.
 1\1\GINC-EXP-1-56\SP\RB3LYP\def2TZVPP\C20H12I1N1O4S2\BIM12\15-May-2025
 \0\\#p b3lyp def2tzvpp scf=maxcycle=128 nosymm scrf=(smd,solvent=propy
 lethanoate) empiricaldispersion=gd3bj\\Title Card Required\\0,1\C,0,-2
 .540923,6.417921,-1.461079\C,0,-2.577899,5.219228,-0.792588\C,0,-1.372
 005,4.547021,-0.438821\C,0,-0.126968,5.129598,-0.824638\C,0,-0.123878,
 6.376991,-1.50807\C,0,-1.302247,7.009763,-1.814713\H,0,-3.473347,6.917
 638,-1.727665\H,0,-3.538815,4.77172,-0.537971\C,0,-1.370655,3.29777,0.
 261822\C,0,1.08851,4.449511,-0.546095\H,0,0.836367,6.813589,-1.789157\
 H,0,-1.290976,7.964778,-2.342219\C,0,1.080556,3.230814,0.078748\C,0,-0
 .155334,2.672663,0.482373\H,0,2.031335,4.906064,-0.852005\C,0,-2.65905
 6,2.654958,0.657215\C,0,-3.046991,1.442639,0.113337\C,0,-3.502025,3.25
 7342,1.645917\C,0,-4.256755,0.797672,0.463942\C,0,-4.735024,2.624217,1
 .986922\C,0,-3.138177,4.454898,2.32636\C,0,-5.092694,1.395405,1.37023\
 C,0,-5.57933,3.225209,2.961068\C,0,-3.971091,5.004027,3.269939\H,0,-2.
 184116,4.932877,2.102265\H,0,-6.038649,0.923651,1.641844\C,0,-5.209215
 ,4.389922,3.585317\H,0,-6.522733,2.733722,3.206081\H,0,-3.675303,5.918
 449,3.78624\H,0,-5.861129,4.842043,4.334344\S,0,-0.084989,1.098255,1.2
 70628\O,0,-0.941581,1.071992,2.405567\O,0,1.273225,0.707587,1.425707\S
 ,0,-1.961525,0.57221,-0.973133\O,0,-1.394724,1.458917,-1.924866\O,0,-2
 .596224,-0.621484,-1.411031\N,0,-0.724027,0.079401,0.074017\H,0,-4.507
 551,-0.15541,-0.000002\H,0,2.002801,2.68822,0.281559\I,0,-0.540381,-1.
 911982,0.540376\\Version=ES64L-G16RevC.01\HF=-2219.7670071\RMSD=3.379e
 -09\Dipole=-1.3761914,2.2121614,0.4944461\Quadrupole=3.3780899,21.9085
 135,-25.2866034,-9.6748008,-13.6996396,-1.2803833\PG=C01 [X(C20H12I1N1
 O4S2)]\\@
 The archive entry for this job was punched.


 HICKORY, DICKORY, DOCK
 TWO MICE RAN UP THE CLOCK
 THE CLOCK STRUCK ONE...
 THE OTHER ESCAPED WITH MINOR INJURIES.
 Job cpu time:       0 days  5 hours 38 minutes 35.1 seconds.
 Elapsed time:       0 days  0 hours 10 minutes 41.9 seconds.
 File lengths (MBytes):  RWF=    803 Int=      0 D2E=      0 Chk=     69 Scr=      1
 Normal termination of Gaussian 16 at Thu May 15 11:56:24 2025.
