 Entering Gaussian System, Link 0=g16
 Initial command:
 /opt/packages/gaussian/g16RevC.01/g16/l1.exe "/local/Gau-99901.inp" -scrdir="/local/"
 Entering Link 1 = /opt/packages/gaussian/g16RevC.01/g16/l1.exe PID=     99902.
  
 Copyright (c) 1988-2019, Gaussian, Inc.  All Rights Reserved.
  
 This is part of the Gaussian(R) 16 program.  It is based on
 the Gaussian(R) 09 system (copyright 2009, Gaussian, Inc.),
 the Gaussian(R) 03 system (copyright 2003, Gaussian, Inc.),
 the Gaussian(R) 98 system (copyright 1998, Gaussian, Inc.),
 the Gaussian(R) 94 system (copyright 1995, Gaussian, Inc.),
 the Gaussian 92(TM) system (copyright 1992, Gaussian, Inc.),
 the Gaussian 90(TM) system (copyright 1990, Gaussian, Inc.),
 the Gaussian 88(TM) system (copyright 1988, Gaussian, Inc.),
 the Gaussian 86(TM) system (copyright 1986, Carnegie Mellon
 University), and the Gaussian 82(TM) system (copyright 1983,
 Carnegie Mellon University). Gaussian is a federally registered
 trademark of Gaussian, Inc.
  
 This software contains proprietary and confidential information,
 including trade secrets, belonging to Gaussian, Inc.
  
 This software is provided under written license and may be
 used, copied, transmitted, or stored only in accord with that
 written license.
  
 The following legend is applicable only to US Government
 contracts under FAR:
  
                    RESTRICTED RIGHTS LEGEND
  
 Use, reproduction and disclosure by the US Government is
 subject to restrictions as set forth in subparagraphs (a)
 and (c) of the Commercial Computer Software - Restricted
 Rights clause in FAR 52.227-19.
  
 Gaussian, Inc.
 340 Quinnipiac St., Bldg. 40, Wallingford CT 06492
  
  
 ---------------------------------------------------------------
 Warning -- This program may not be used in any manner that
 competes with the business of Gaussian, Inc. or will provide
 assistance to any competitor of Gaussian, Inc.  The licensee
 of this program is prohibited from giving any competitor of
 Gaussian, Inc. access to this program.  By using this program,
 the user acknowledges that Gaussian, Inc. is engaged in the
 business of creating and licensing software in the field of
 computational chemistry and represents and warrants to the
 licensee that it is not a competitor of Gaussian, Inc. and that
 it will not use this program in any manner prohibited above.
 ---------------------------------------------------------------
  

 Cite this work as:
 Gaussian 16, Revision C.01,
 M. J. Frisch, G. W. Trucks, H. B. Schlegel, G. E. Scuseria, 
 M. A. Robb, J. R. Cheeseman, G. Scalmani, V. Barone, 
 G. A. Petersson, H. Nakatsuji, X. Li, M. Caricato, A. V. Marenich, 
 J. Bloino, B. G. Janesko, R. Gomperts, B. Mennucci, H. P. Hratchian, 
 J. V. Ortiz, A. F. Izmaylov, J. L. Sonnenberg, D. Williams-Young, 
 F. Ding, F. Lipparini, F. Egidi, J. Goings, B. Peng, A. Petrone, 
 T. Henderson, D. Ranasinghe, V. G. Zakrzewski, J. Gao, N. Rega, 
 G. Zheng, W. Liang, M. Hada, M. Ehara, K. Toyota, R. Fukuda, 
 J. Hasegawa, M. Ishida, T. Nakajima, Y. Honda, O. Kitao, H. Nakai, 
 T. Vreven, K. Throssell, J. A. Montgomery, Jr., J. E. Peralta, 
 F. Ogliaro, M. J. Bearpark, J. J. Heyd, E. N. Brothers, K. N. Kudin, 
 V. N. Staroverov, T. A. Keith, R. Kobayashi, J. Normand, 
 K. Raghavachari, A. P. Rendell, J. C. Burant, S. S. Iyengar, 
 J. Tomasi, M. Cossi, J. M. Millam, M. Klene, C. Adamo, R. Cammi, 
 J. W. Ochterski, R. L. Martin, K. Morokuma, O. Farkas, 
 J. B. Foresman, and D. J. Fox, Gaussian, Inc., Wallingford CT, 2019.
 
 ******************************************
 Gaussian 16:  ES64L-G16RevC.01  3-Jul-2019
                11-Jun-2024 
 ******************************************
 %nprocshared=32
 Will use up to   32 processors via shared memory.
 %mem=64GB
 ----------------------------------------------------------------------
 #p b3lyp def2tzvpp scf=maxcycle=128 nosymm scrf=(smd,solvent=propyleth
 anoate) empiricaldispersion=gd3bj
 ----------------------------------------------------------------------
 1/38=1,172=1/1;
 2/12=2,15=1,17=6,18=5,40=1/2;
 3/5=44,7=202,11=2,25=1,30=1,70=32201,72=169,74=-5,124=41/1,2,3;
 4//1;
 5/5=2,7=128,38=5,53=169/2;
 6/7=2,8=2,9=2,10=2,28=1/1;
 99/5=1,9=1/99;
 Leave Link    1 at Tue Jun 11 17:58:36 2024, MaxMem=  8589934592 cpu:               0.8 elap:               0.0
 (Enter /opt/packages/gaussian/g16RevC.01/g16/l101.exe)
 -------------------
 Title Card Required
 -------------------
 Symbolic Z-matrix:
 Charge =  0 Multiplicity = 1
 C                     1.82974  -1.6358   -0.35607 
 C                     0.49817  -1.75597  -0.74089 
 C                    -0.37873  -2.45704   0.10479 
 C                     0.12496  -3.02005   1.26781 
 C                     1.50522  -2.87638   1.56704 
 N                     2.3057   -2.16337   0.77455 
 H                    -0.54491  -3.57885   1.91855 
 C                     2.82258  -0.90901  -1.20561 
 C                     4.12733  -1.40047  -1.44493 
 C                     5.0309   -0.62896  -2.18779 
 C                     3.38902   1.10924  -2.48347 
 C                     4.66962   0.61324  -2.70395 
 H                     6.02895  -1.02676  -2.37847 
 H                     5.38676   1.19515  -3.2846 
 H                     3.06285   2.07894  -2.86069 
 C                     2.50107   0.34106  -1.74408 
 C                     4.58132  -2.73232  -0.95057 
 C                     5.78877  -2.8418   -0.24997 
 C                     3.8342   -3.89356  -1.19335 
 C                     6.22882  -4.08002   0.22124 
 H                     6.37615  -1.94309  -0.04952 
 C                     4.27316  -5.12891  -0.72518 
 H                     2.89545  -3.82225  -1.74745 
 C                     5.4708   -5.22649  -0.01159 
 H                     7.16629  -4.14552   0.77671 
 H                     3.67846  -6.02313  -0.92041 
 H                     5.81177  -6.19533   0.35794 
 F                     1.28349   0.85252  -1.51702 
 C                    -1.8301   -2.59263  -0.26264 
 H                    -2.30068  -1.60115  -0.34011 
 H                    -1.9364   -3.07892  -1.24364 
 H                    -2.38171  -3.18244   0.48058 
 C                     1.32755  -3.93094   3.80516 
 C                     3.49746  -3.23252   2.94584 
 C                     2.04143  -5.08549   4.49316 
 H                     0.33262  -4.27566   3.50357 
 H                     1.19931  -3.09871   4.52466 
 C                     4.09782  -4.42464   3.66901 
 H                     4.03395  -3.05824   2.00645 
 H                     3.60249  -2.32534   3.5727 
 H                     2.02776  -5.96763   3.82327 
 H                     1.51911  -5.34595   5.42374 
 H                     4.12501  -5.29151   2.97985 
 H                     5.12577  -4.1958    3.98176 
 N                     2.09391  -3.48742   2.65317 
 O                     3.36495  -4.75423   4.82576 
 H                     0.14054  -1.31206  -1.66994 
 
 ITRead=  0  0  0  0  0  0  0  0  0  0  0  0  0  0  0  0  0  0  0  0
 ITRead=  0  0  0  0  0  0  0  0  0  0  0  0  0  0  0  0  0  0  0  0
 ITRead=  0  0  0  0  0  0  0
 MicOpt= -1 -1 -1 -1 -1 -1 -1 -1 -1 -1 -1 -1 -1 -1 -1 -1 -1 -1 -1 -1
 MicOpt= -1 -1 -1 -1 -1 -1 -1 -1 -1 -1 -1 -1 -1 -1 -1 -1 -1 -1 -1 -1
 MicOpt= -1 -1 -1 -1 -1 -1 -1
 NAtoms=     47 NQM=       47 NQMF=       0 NMMI=      0 NMMIF=      0
                NMic=       0 NMicF=      0.
                    Isotopes and Nuclear Properties:
 (Nuclear quadrupole moments (NQMom) in fm**2, nuclear magnetic moments (NMagM)
  in nuclear magnetons)

  Atom         1           2           3           4           5           6           7           8           9          10
 IAtWgt=          12          12          12          12          12          14           1          12          12          12
 AtmWgt=  12.0000000  12.0000000  12.0000000  12.0000000  12.0000000  14.0030740   1.0078250  12.0000000  12.0000000  12.0000000
 NucSpn=           0           0           0           0           0           2           1           0           0           0
 AtZEff=   0.0000000   0.0000000   0.0000000   0.0000000   0.0000000   0.0000000   0.0000000   0.0000000   0.0000000   0.0000000
 NQMom=    0.0000000   0.0000000   0.0000000   0.0000000   0.0000000   2.0440000   0.0000000   0.0000000   0.0000000   0.0000000
 NMagM=    0.0000000   0.0000000   0.0000000   0.0000000   0.0000000   0.4037610   2.7928460   0.0000000   0.0000000   0.0000000
 AtZNuc=   6.0000000   6.0000000   6.0000000   6.0000000   6.0000000   7.0000000   1.0000000   6.0000000   6.0000000   6.0000000

  Atom        11          12          13          14          15          16          17          18          19          20
 IAtWgt=          12          12           1           1           1          12          12          12          12          12
 AtmWgt=  12.0000000  12.0000000   1.0078250   1.0078250   1.0078250  12.0000000  12.0000000  12.0000000  12.0000000  12.0000000
 NucSpn=           0           0           1           1           1           0           0           0           0           0
 AtZEff=   0.0000000   0.0000000   0.0000000   0.0000000   0.0000000   0.0000000   0.0000000   0.0000000   0.0000000   0.0000000
 NQMom=    0.0000000   0.0000000   0.0000000   0.0000000   0.0000000   0.0000000   0.0000000   0.0000000   0.0000000   0.0000000
 NMagM=    0.0000000   0.0000000   2.7928460   2.7928460   2.7928460   0.0000000   0.0000000   0.0000000   0.0000000   0.0000000
 AtZNuc=   6.0000000   6.0000000   1.0000000   1.0000000   1.0000000   6.0000000   6.0000000   6.0000000   6.0000000   6.0000000

  Atom        21          22          23          24          25          26          27          28          29          30
 IAtWgt=           1          12           1          12           1           1           1          19          12           1
 AtmWgt=   1.0078250  12.0000000   1.0078250  12.0000000   1.0078250   1.0078250   1.0078250  18.9984032  12.0000000   1.0078250
 NucSpn=           1           0           1           0           1           1           1           1           0           1
 AtZEff=   0.0000000   0.0000000   0.0000000   0.0000000   0.0000000   0.0000000   0.0000000   0.0000000   0.0000000   0.0000000
 NQMom=    0.0000000   0.0000000   0.0000000   0.0000000   0.0000000   0.0000000   0.0000000   0.0000000   0.0000000   0.0000000
 NMagM=    2.7928460   0.0000000   2.7928460   0.0000000   2.7928460   2.7928460   2.7928460   2.6288670   0.0000000   2.7928460
 AtZNuc=   1.0000000   6.0000000   1.0000000   6.0000000   1.0000000   1.0000000   1.0000000   9.0000000   6.0000000   1.0000000

  Atom        31          32          33          34          35          36          37          38          39          40
 IAtWgt=           1           1          12          12          12           1           1          12           1           1
 AtmWgt=   1.0078250   1.0078250  12.0000000  12.0000000  12.0000000   1.0078250   1.0078250  12.0000000   1.0078250   1.0078250
 NucSpn=           1           1           0           0           0           1           1           0           1           1
 AtZEff=   0.0000000   0.0000000   0.0000000   0.0000000   0.0000000   0.0000000   0.0000000   0.0000000   0.0000000   0.0000000
 NQMom=    0.0000000   0.0000000   0.0000000   0.0000000   0.0000000   0.0000000   0.0000000   0.0000000   0.0000000   0.0000000
 NMagM=    2.7928460   2.7928460   0.0000000   0.0000000   0.0000000   2.7928460   2.7928460   0.0000000   2.7928460   2.7928460
 AtZNuc=   1.0000000   1.0000000   6.0000000   6.0000000   6.0000000   1.0000000   1.0000000   6.0000000   1.0000000   1.0000000

  Atom        41          42          43          44          45          46          47
 IAtWgt=           1           1           1           1          14          16           1
 AtmWgt=   1.0078250   1.0078250   1.0078250   1.0078250  14.0030740  15.9949146   1.0078250
 NucSpn=           1           1           1           1           2           0           1
 AtZEff=   0.0000000   0.0000000   0.0000000   0.0000000   0.0000000   0.0000000   0.0000000
 NQMom=    0.0000000   0.0000000   0.0000000   0.0000000   2.0440000   0.0000000   0.0000000
 NMagM=    2.7928460   2.7928460   2.7928460   2.7928460   0.4037610   0.0000000   2.7928460
 AtZNuc=   1.0000000   1.0000000   1.0000000   1.0000000   7.0000000   8.0000000   1.0000000
 Leave Link  101 at Tue Jun 11 17:58:36 2024, MaxMem=  8589934592 cpu:               1.5 elap:               0.1
 (Enter /opt/packages/gaussian/g16RevC.01/g16/l202.exe)
                          Input orientation:                          
 ---------------------------------------------------------------------
 Center     Atomic      Atomic             Coordinates (Angstroms)
 Number     Number       Type             X           Y           Z
 ---------------------------------------------------------------------
      1          6           0        1.829735   -1.635803   -0.356070
      2          6           0        0.498171   -1.755974   -0.740889
      3          6           0       -0.378727   -2.457038    0.104786
      4          6           0        0.124960   -3.020047    1.267805
      5          6           0        1.505215   -2.876383    1.567036
      6          7           0        2.305701   -2.163369    0.774553
      7          1           0       -0.544905   -3.578848    1.918552
      8          6           0        2.822576   -0.909014   -1.205606
      9          6           0        4.127329   -1.400467   -1.444927
     10          6           0        5.030902   -0.628958   -2.187789
     11          6           0        3.389019    1.109241   -2.483473
     12          6           0        4.669623    0.613243   -2.703948
     13          1           0        6.028951   -1.026755   -2.378466
     14          1           0        5.386760    1.195146   -3.284604
     15          1           0        3.062854    2.078936   -2.860687
     16          6           0        2.501067    0.341063   -1.744079
     17          6           0        4.581320   -2.732317   -0.950567
     18          6           0        5.788773   -2.841796   -0.249965
     19          6           0        3.834196   -3.893557   -1.193346
     20          6           0        6.228819   -4.080022    0.221239
     21          1           0        6.376149   -1.943086   -0.049521
     22          6           0        4.273161   -5.128911   -0.725175
     23          1           0        2.895451   -3.822246   -1.747454
     24          6           0        5.470797   -5.226494   -0.011591
     25          1           0        7.166292   -4.145515    0.776712
     26          1           0        3.678464   -6.023128   -0.920413
     27          1           0        5.811769   -6.195333    0.357942
     28          9           0        1.283488    0.852516   -1.517023
     29          6           0       -1.830102   -2.592626   -0.262638
     30          1           0       -2.300679   -1.601151   -0.340110
     31          1           0       -1.936400   -3.078920   -1.243640
     32          1           0       -2.381710   -3.182437    0.480575
     33          6           0        1.327548   -3.930940    3.805155
     34          6           0        3.497458   -3.232518    2.945837
     35          6           0        2.041434   -5.085492    4.493160
     36          1           0        0.332620   -4.275656    3.503570
     37          1           0        1.199311   -3.098715    4.524660
     38          6           0        4.097821   -4.424645    3.669009
     39          1           0        4.033951   -3.058245    2.006446
     40          1           0        3.602492   -2.325345    3.572697
     41          1           0        2.027759   -5.967625    3.823273
     42          1           0        1.519114   -5.345947    5.423735
     43          1           0        4.125007   -5.291513    2.979845
     44          1           0        5.125766   -4.195801    3.981762
     45          7           0        2.093908   -3.487418    2.653172
     46          8           0        3.364945   -4.754226    4.825759
     47          1           0        0.140540   -1.312060   -1.669936
 ---------------------------------------------------------------------
                    Distance matrix (angstroms):
                    1          2          3          4          5
     1  C    0.000000
     2  C    1.391255   0.000000
     3  C    2.400858   1.405563   0.000000
     4  C    2.731183   2.402503   1.386828   0.000000
     5  C    2.311426   2.756079   2.421418   1.419606   0.000000
     6  N    1.335357   2.393679   2.782262   2.394332   1.333115
     7  H    3.819456   3.388732   2.139117   1.088324   2.195453
     8  C    1.495215   2.517173   3.789703   4.225086   3.646029
     9  C    2.553416   3.713872   4.880829   5.099109   4.257432
    10  C    3.823140   4.889717   6.153199   6.459621   5.619617
    11  C    3.806899   4.427534   5.797701   6.463527   5.986697
    12  C    4.316909   5.183416   6.542282   7.044826   6.358638
    13  H    4.700472   5.814030   7.019301   7.219807   6.281106
    14  H    5.407681   6.251232   7.620187   8.135037   7.428469
    15  H    4.646824   5.077172   6.419780   7.188553   6.825405
    16  C    2.507041   3.068476   4.420507   5.100430   4.723046
    17  C    3.021091   4.203489   5.078545   4.986292   3.977625
    18  C    4.140007   5.423143   6.189664   5.866360   4.653123
    19  C    3.133105   3.987862   4.636535   4.536377   3.752133
    20  C    5.065514   6.258372   6.804947   6.282988   5.056911
    21  H    4.567086   5.921455   6.776157   6.478623   5.216349
    22  C    4.278828   5.062361   5.428425   5.062297   4.241419
    23  H    2.802184   3.321085   4.001853   4.172641   3.716619
    24  C    5.125335   6.107650   6.473049   5.923110   4.872466
    25  H    6.005055   7.244091   7.760783   7.147601   5.855177
    26  H    4.794257   5.324950   5.498075   5.141418   4.562063
    27  H    6.095549   7.010682   7.236102   6.576480   5.569896
    28  F    2.799630   2.832548   4.043065   4.908584   4.844096
    29  C    3.783999   2.519834   1.503288   2.519367   3.814782
    30  H    4.130590   2.831635   2.150436   3.237651   4.443901
    31  H    4.129666   2.816040   2.152054   3.249620   4.448105
    32  H    4.563805   3.438093   2.163183   2.632394   4.047500
    33  C    4.778665   5.107334   4.333185   2.951964   2.480490
    34  C    4.029068   4.976731   4.868034   3.772887   2.448868
    35  C    5.954847   6.392388   5.658955   4.282739   3.705387
    36  H    4.909888   4.938789   3.919837   2.572610   2.661411
    37  H    5.134109   5.479102   4.736796   3.430382   2.981702
    38  C    5.396584   6.287009   6.051004   4.849979   3.679268
    39  H    3.530353   4.663207   4.842467   3.978349   2.573064
    40  H    4.365014   5.344906   5.281463   4.229464   2.953792
    41  H    6.022525   6.396031   5.651773   4.340424   3.862568
    42  H    6.875158   7.206443   6.343407   4.962382   4.579636
    43  H    5.455348   6.284730   6.048457   4.908260   3.833040
    44  H    6.019485   7.047753   6.953681   5.809993   4.547544
    45  N    3.543135   4.130850   3.697280   2.452434   1.378265
    46  O    6.239614   6.942296   6.448235   5.115068   4.195732
    47  H    2.164355   1.089994   2.174914   3.398203   3.845443
                    6          7          8          9         10
     6  N    0.000000
     7  H    3.382051   0.000000
     8  C    2.400332   5.313032   0.000000
     9  C    2.970932   6.155331   1.414631   0.000000
    10  C    4.307738   7.526853   2.433068   1.401255   0.000000
    11  C    4.743236   7.538684   2.455026   2.814660   2.409262
    12  C    5.039610   8.132185   2.823806   2.436031   1.392841
    13  H    5.009592   8.257913   3.416183   2.151121   1.091193
    14  H    6.103221   9.222174   3.914685   3.421664   2.158007
    15  H    5.637854   8.238178   3.424160   3.904322   3.414483
    16  C    3.557226   6.169158   1.398576   2.401488   2.745521
    17  C    2.911732   5.935204   2.546107   1.491417   2.481322
    18  C    3.693466   6.735072   3.667045   2.503150   3.037463
    19  C    3.033558   5.381401   3.151352   2.522839   3.616439
    20  C    4.401201   7.001099   4.867614   3.791093   4.375873
    21  H    4.158866   7.379025   3.877334   2.701626   2.847598
    22  C    3.861932   5.710144   4.488044   3.800080   4.791971
    23  H    3.075743   5.033378   2.964090   2.733873   3.866670
    24  C    4.474214   6.529078   5.203785   4.300912   5.105554
    25  H    5.249214   7.815847   5.768223   4.658998   5.070930
    26  H    4.433410   5.645447   5.193076   4.673927   5.703718
    27  H    5.359367   7.049028   6.270975   5.392441   6.170497
    28  F    3.923239   5.897727   2.359822   3.628851   4.085071
    29  C    4.285428   2.716975   5.036978   6.189510   7.391588
    30  H    4.772557   3.477870   5.241744   6.525349   7.623067
    31  H    4.786100   3.490794   5.230468   6.294961   7.445605
    32  H    4.805907   2.366172   5.924209   7.017875   8.281741
    33  C    3.642202   2.681291   6.039443   6.465712   7.780315
    34  C    2.697747   4.185207   4.805061   4.799162   5.956852
    35  C    4.736737   3.948130   7.108381   7.293233   8.569288
    36  H    3.975216   1.941101   6.301627   6.866888   8.231879
    37  H    4.020233   3.172478   6.345528   6.862456   8.114047
    38  C    4.086923   5.033327   6.143922   5.941285   7.041304
    39  H    2.303304   4.609195   4.050173   3.830003   4.948429
    40  H    3.088286   4.637711   5.044447   5.129074   6.172624
    41  H    4.883063   3.994098   7.177110   7.281556   8.582138
    42  H    5.688797   4.434988   8.082917   8.339551   9.618625
    43  H    4.237744   5.086024   6.198437   5.892270   7.018868
    44  H    4.729666   6.065804   6.558692   6.185444   7.127042
    45  N    2.308067   2.740686   4.697796   5.028378   6.342841
    46  O    4.924105   5.012015   7.173366   7.151953   8.305607
    47  H    3.374637   4.299466   2.751611   3.994112   4.964921
                   11         12         13         14         15
    11  C    0.000000
    12  C    1.390888   0.000000
    13  H    3.397462   2.154833   0.000000
    14  H    2.154103   1.090898   2.484017   0.000000
    15  H    1.090405   2.180488   4.321526   2.522168   0.000000
    16  C    1.387537   2.387062   3.836579   3.380813   2.140706
    17  C    4.304527   3.778216   2.653954   4.639119   5.394669
    18  C    5.134011   4.383129   2.807593   5.066315   6.201621
    19  C    5.185615   4.826086   3.800002   5.716530   6.248653
    20  C    6.504489   5.745829   4.015078   6.389632   7.579866
    21  H    4.915666   4.061161   2.526696   4.614450   5.920915
    22  C    6.541243   6.086465   4.758556   6.912632   7.614349
    23  H    5.010479   4.871974   4.246383   5.808930   6.007600
    24  C    7.112351   6.480216   4.852983   7.208130   8.202734
    25  H    7.246313   6.402666   4.579886   6.941447   8.295340
    26  H    7.307368   6.942969   5.710906   7.785317   8.353866
    27  H    8.203667   7.552243   5.852290   8.250331   9.294064
    28  F    2.330921   3.596102   5.176211   4.480913   2.544736
    29  C    6.773120   7.647484   8.288148   8.692675   7.246680
    30  H    6.656793   7.686116   8.594624   8.694023   6.975947
    31  H    6.887522   7.707406   8.303374   8.721344   7.362802
    32  H    7.778521   8.617985   9.141132   9.679304   8.275830
    33  C    8.318649   8.613216   8.293048   9.644617   9.141299
    34  C    6.952700   6.934257   6.294605   7.873504   7.881380
    35  C    9.426776   9.548891   8.921484  10.541880  10.317528
    36  H    8.612977   9.013557   8.809194  10.077366   9.398871
    37  H    8.462603   8.835976   8.675920   9.846653   9.210006
    38  C    8.305380   8.143823   7.200477   9.033059   9.273869
    39  H    6.159809   6.005973   5.228234   6.922184   7.143013
    40  H    6.965569   7.012157   6.556705   7.912019   7.815199
    41  H    9.576539   9.638044   8.881627  10.635323  10.511607
    42  H   10.377376  10.559208   9.993417  11.557671  11.231370
    43  H    8.447436   8.213906   7.108070   9.105607   9.463800
    44  H    8.541605   8.248254   7.163176   9.051547   9.510365
    45  N    7.013680   7.221389   6.845203   8.247816   7.894669
    46  O    9.370469   9.338544   8.537671  10.259666  10.289063
    47  H    4.132452   5.028774   5.937743   6.034572   4.632134
                   16         17         18         19         20
    16  C    0.000000
    17  C    3.795099   0.000000
    18  C    4.813728   1.400276   0.000000
    19  C    4.473538   1.402004   2.411750   0.000000
    20  C    6.107749   2.429751   1.396022   2.787479   0.000000
    21  H    4.806779   2.157818   1.092185   3.402087   2.159054
    22  C    5.839443   2.426814   2.784564   1.392111   2.412564
    23  H    4.181948   2.159891   3.402215   1.092412   3.879890
    24  C    6.543585   2.809584   2.417585   2.419035   1.393989
    25  H    6.946085   3.415070   2.156689   3.879108   1.091648
    26  H    6.524386   3.412550   3.876052   2.152630   3.403431
    27  H    7.622579   3.901113   3.408268   3.408146   2.160361
    28  F    1.340014   4.903835   5.962463   5.397785   7.197762
    29  C    5.436931   6.449736   7.622959   5.885823   8.209305
    30  H    5.366571   7.001007   8.184532   6.604531   8.900126
    31  H    5.624752   6.533506   7.792427   5.828031   8.355769
    32  H    6.419163   7.122820   8.210147   6.476511   8.661069
    33  C    7.100785   5.885628   6.126399   5.591931   6.073643
    34  C    5.979849   4.075159   3.951701   4.205140   3.949941
    35  C    8.280212   6.451559   6.447787   6.080383   6.065845
    36  H    7.318065   6.346076   6.776030   5.870950   6.751084
    37  H    7.267994   6.445956   6.627685   6.345864   6.691662
    38  C    7.386685   4.943504   4.552262   4.898372   4.067805
    39  H    5.288806   3.024858   2.866643   3.313053   3.008062
    40  H    6.049048   4.645820   4.433880   5.022762   4.605296
    41  H    8.427276   6.306936   6.364535   5.721140   5.846931
    42  H    9.202384   7.539224   7.529385   7.159246   7.130908
    43  H    7.528516   4.712308   4.381884   4.410711   3.674730
    44  H    7.762566   5.173594   4.492262   5.342401   3.920671
    45  N    5.844558   4.443459   4.743107   4.241374   4.833525
    46  O    8.358889   6.239682   5.940985   6.098407   5.464241
    47  H    2.882777   4.717536   6.021540   4.531485   6.950201
                   21         22         23         24         25
    21  H    0.000000
    22  C    3.876667   0.000000
    23  H    4.304588   2.156505   0.000000
    24  C    3.406152   1.397518   3.408451   0.000000
    25  H    2.481467   3.404841   4.971519   2.159778   0.000000
    26  H    4.968169   1.091516   2.478102   2.161722   4.309363
    27  H    4.308846   2.162802   4.309193   1.091543   2.492359
    28  F    5.992007   6.733694   4.950245   7.533541   8.052883
    29  C    8.234675   6.625443   5.103675   7.765527   9.188407
    30  H    8.688424   7.470525   5.823542   8.581776   9.866338
    31  H    8.474344   6.559719   4.914585   7.810031   9.385012
    32  H    8.860987   7.037748   5.763844   8.129100   9.601019
    33  C    6.655709   5.534949   5.770754   5.780357   6.580915
    34  C    4.349904   4.204087   4.768351   4.076320   4.358785
    35  C    7.021426   5.675695   6.424204   5.663320   6.399978
    36  H    7.388476   5.842790   5.860626   6.297723   7.358788
    37  H    7.004160   6.413347   6.537569   6.584118   7.123747
    38  C    5.017607   4.453716   5.580918   4.009344   4.225969
    39  H    3.310056   3.436078   3.996454   3.292158   3.536377
    40  H    4.578183   5.175083   5.571770   4.975374   4.881723
    41  H    7.078414   5.141367   6.032291   5.206723   6.245490
    42  H    8.070117   6.740992   7.459351   6.721074   7.411240
    43  H    5.045460   3.711544   5.100775   3.280864   3.926388
    44  H    4.784289   4.873693   6.159364   4.138628   3.799818
    45  N    5.294063   4.342450   4.485542   4.639906   5.448236
    46  O    6.382649   5.637208   6.655535   5.296943   5.587088
    47  H    6.473543   5.704339   3.727811   6.817957   7.960888
                   26         27         28         29         30
    26  H    0.000000
    27  H    2.492957   0.000000
    28  F    7.305226   8.584463   0.000000
    29  C    6.522677   8.471293   4.810086   0.000000
    30  H    7.459275   9.349096   4.500207   1.100212   0.000000
    31  H    6.348191   8.503600   5.089067   1.100066   1.769991
    32  H    6.837982   8.730732   5.805594   1.097504   1.783411
    33  C    5.677592   6.092536   7.156044   5.320599   5.981235
    34  C    4.771599   4.564155   6.442537   6.251933   6.861283
    35  C    5.732870   5.705015   8.482731   6.619727   7.372590
    36  H    5.815493   6.603121   7.239382   4.657712   5.372254
    37  H    6.659370   6.944447   7.219505   5.687855   6.177266
    38  C    4.877889   4.127483   7.916049   7.345367   8.061387
    39  H    4.181316   3.964785   5.939186   6.304971   6.910643
    40  H    5.819571   5.494758   6.432871   6.655397   7.119125
    41  H    5.022994   5.136059   8.694080   6.555027   7.425310
    42  H    6.735694   6.694072   9.308630   7.150725   7.863601
    43  H    3.993329   3.245987   8.126816   7.298014   8.119748
    44  H    5.428179   4.195331   8.395549   8.304770   8.975682
    45  N    4.659523   5.140367   6.073083   4.969955   5.641820
    46  O    5.892953   5.293876   8.717735   7.586357   8.290198
    47  H    5.939095   7.753804   2.452570   2.739300   2.794917
                   31         32         33         34         35
    31  H    0.000000
    32  H    1.783798   0.000000
    33  C    6.072036   5.037031   0.000000
    34  C    6.863099   6.375315   2.436130   0.000000
    35  C    7.263633   6.267907   1.521833   2.819171   0.000000
    36  H    5.395983   4.207281   1.095292   3.378669   2.134284
    37  H    6.565543   5.402346   1.107579   2.791427   2.158112
    38  C    7.896640   7.327586   2.817214   1.518084   2.311854
    39  H    6.797689   6.595787   3.364754   1.095742   3.776718
    40  H    7.378638   6.790177   2.794162   1.107677   3.301903
    41  H    7.052147   6.194701   2.153766   3.226565   1.107743
    42  H    7.844353   6.658231   2.158412   3.810565   1.098465
    43  H    7.711942   7.282302   3.218396   2.152774   2.583378
    44  H    8.855870   8.345503   3.811535   2.156952   3.250566
    45  N    5.620978   4.984410   1.452957   1.456221   2.437653
    46  O    8.230949   7.373953   2.422895   2.422243   1.404294
    47  H    2.759928   3.805884   6.184185   6.021828   7.472345
                   36         37         38         39         40
    36  H    0.000000
    37  H    1.782966   0.000000
    38  C    3.771778   3.300241   0.000000
    39  H    4.174125   3.791863   2.152962   0.000000
    40  H    3.807959   2.698076   2.159094   1.782257   0.000000
    41  H    2.416292   3.067395   2.586453   3.973683   3.976025
    42  H    2.498064   2.441447   3.252321   4.820358   4.109847
    43  H    3.960865   3.969196   1.107766   2.437885   3.069633
    44  H    4.817602   4.112832   1.098569   2.527443   2.446692
    45  N    2.108704   2.110417   2.434335   2.089548   2.114655
    46  O    3.342485   2.742508   1.408475   3.357446   2.743366
    47  H    5.965313   6.533464   7.338433   5.632370   6.363730
                   41         42         43         44         45
    41  H    0.000000
    42  H    1.790721   0.000000
    43  H    2.359438   3.572988   0.000000
    44  H    3.572412   4.050933   1.790514   0.000000
    45  N    2.743162   3.385342   2.736209   3.385132   0.000000
    46  O    2.065280   2.028497   2.067310   2.030926   2.817884
    47  H    7.443872   8.276042   7.302909   8.069085   5.218917
                   46         47
    46  O    0.000000
    47  H    8.027412   0.000000
 Symmetry turned off by external request.
 Stoichiometry    C22H21FN2O
 Framework group  C1[X(C22H21FN2O)]
 Deg. of freedom   135
 Full point group                 C1      NOp   1
 Rotational constants (GHZ):           0.2788456           0.1739967           0.1257831
 Leave Link  202 at Tue Jun 11 17:58:36 2024, MaxMem=  8589934592 cpu:               0.1 elap:               0.0
 (Enter /opt/packages/gaussian/g16RevC.01/g16/l301.exe)
 Standard basis: def2TZVPP (5D, 7F)
 Ernie: Thresh=  0.10000D-02 Tol=  0.10000D-05 Strict=F.
  1100 basis functions,  1683 primitive gaussians,  1251 cartesian basis functions
    92 alpha electrons       92 beta electrons
       nuclear repulsion energy      2320.0374966091 Hartrees.
 IExCor=  402 DFT=T Ex+Corr=B3LYP ExCW=0 ScaHFX=  0.200000
 ScaDFX=  0.800000  0.720000  1.000000  0.810000 ScalE2=  1.000000  1.000000
 IRadAn=      5 IRanWt=     -1 IRanGd=            0 ICorTp=0 IEmpDi=141
 NAtoms=   47 NActive=   47 NUniq=   47 SFac= 1.00D+00 NAtFMM=   60 NAOKFM=F Big=F
 Integral buffers will be    131072 words long.
 Raffenetti 2 integral format.
 Two-electron integral symmetry is turned off.
 R6Disp:  Grimme-D3(BJ) Dispersion energy=       -0.1118753535 Hartrees.
 Nuclear repulsion after empirical dispersion term =     2319.9256212556 Hartrees.
 ------------------------------------------------------------------------------
 Polarizable Continuum Model (PCM)
 =================================
 Model                : PCM.
 Atomic radii         : SMD-Coulomb.
 Polarization charges : Total charges.
 Charge compensation  : None.
 Solution method      : On-the-fly selection.
 Cavity type          : VdW (van der Waals Surface) (Alpha=1.000).
 Cavity algorithm     : GePol (No added spheres)
                        Default sphere list used, NSphG=   47.
                        Lebedev-Laikov grids with approx.  5.0 points / Ang**2.
                        Smoothing algorithm: York/Karplus (Gamma=1.0000).
                        Polarization charges: spherical gaussians, with
                                              point-specific exponents (IZeta= 3).
                        Self-potential: point-specific (ISelfS= 7).
                        Self-field    : sphere-specific E.n sum rule (ISelfD= 2).
 Solvent              : PropylEthanoate, Eps=   5.520500 Eps(inf)=   1.916010
 ------------------------------------------------------------------------------
 GePol: Number of generator spheres                  =      47
 GePol: Total number of spheres                      =      47
 GePol: Number of exposed spheres                    =      47 (100.00%)
 GePol: Number of points                             =    3436
 GePol: Average weight of points                     =       0.11
 GePol: Minimum weight of points                     =   0.99D-10
 GePol: Maximum weight of points                     =    0.21501
 GePol: Number of points with low weight             =     228
 GePol: Fraction of low-weight points (<1% of avg)   =       6.64%
 GePol: Cavity surface area                          =    377.576 Ang**2
 GePol: Cavity volume                                =    370.234 Ang**3
 ------------------------------------------------------------------------------
 Atomic radii for non-electrostatic terms: SMD-CDS.
 ------------------------------------------------------------------------------
 PCM non-electrostatic energy =        -0.0111360815 Hartrees.
 Nuclear repulsion after PCM non-electrostatic terms =     2319.9144851741 Hartrees.
 Leave Link  301 at Tue Jun 11 17:58:36 2024, MaxMem=  8589934592 cpu:               2.2 elap:               0.1
 (Enter /opt/packages/gaussian/g16RevC.01/g16/l302.exe)
 NPDir=0 NMtPBC=     1 NCelOv=     1 NCel=       1 NClECP=     1 NCelD=      1
         NCelK=      1 NCelE2=     1 NClLst=     1 CellRange=     0.0.
 One-electron integrals computed using PRISM.
   1 Symmetry operations used in ECPInt.
 ECPInt:  NShTT=   85078 NPrTT=  237651 LenC2=   72027 LenP2D=  144360.
 LDataN:  DoStor=T MaxTD1= 6 Len=  172
 NBasis=  1100 RedAO= T EigKep=  6.22D-06  NBF=  1100
 NBsUse=  1100 1.00D-06 EigRej= -1.00D+00 NBFU=  1100
 Precomputing XC quadrature grid using
 IXCGrd= 4 IRadAn=           5 IRanWt=          -1 IRanGd=           0 AccXCQ= 0.00D+00.
 Generated NRdTot=       0 NPtTot=           0 NUsed=           0 NTot=          32
 NSgBfM=  1229  1229  1229  1229  1229 MxSgAt=    47 MxSgA2=    47.
 Leave Link  302 at Tue Jun 11 17:58:38 2024, MaxMem=  8589934592 cpu:              53.7 elap:               1.7
 (Enter /opt/packages/gaussian/g16RevC.01/g16/l303.exe)
 DipDrv:  MaxL=1.
 Leave Link  303 at Tue Jun 11 17:58:38 2024, MaxMem=  8589934592 cpu:               5.0 elap:               0.2
 (Enter /opt/packages/gaussian/g16RevC.01/g16/l401.exe)
 ExpMin= 9.52D-02 ExpMax= 3.55D+04 ExpMxC= 1.21D+03 IAcc=3 IRadAn=         5 AccDes= 0.00D+00
 Harris functional with IExCor=  402 and IRadAn=       5 diagonalized for initial guess.
 HarFok:  IExCor=  402 AccDes= 0.00D+00 IRadAn=         5 IDoV= 1 UseB2=F ITyADJ=14
 ICtDFT=  3500011 ScaDFX=  1.000000  1.000000  1.000000  1.000000
 FoFCou: FMM=F IPFlag=           0 FMFlag=      100000 FMFlg1=           0
         NFxFlg=           0 DoJE=T BraDBF=F KetDBF=T FulRan=T
         wScrn=  0.000000 ICntrl=       500 IOpCl=  0 I1Cent=   200000004 NGrid=           0
         NMat0=    1 NMatS0=      1 NMatT0=    0 NMatD0=    1 NMtDS0=    0 NMtDT0=    0
 Symmetry not used in FoFCou.
 Harris En= -1136.12940287759    
 JPrj=0 DoOrth=F DoCkMO=F.
 Leave Link  401 at Tue Jun 11 17:58:42 2024, MaxMem=  8589934592 cpu:             129.3 elap:               4.1
 (Enter /opt/packages/gaussian/g16RevC.01/g16/l502.exe)
 Two-electron integral symmetry not used.
 Closed shell SCF:
 Using DIIS extrapolation, IDIIS=  1040.
 NGot=  8589934592 LenX=  8586755599 LenY=  8585189347
 Requested convergence on RMS density matrix=1.00D-08 within 128 cycles.
 Requested convergence on MAX density matrix=1.00D-06.
 Requested convergence on             energy=1.00D-06.
 No special actions if energy rises.
 Fock matrices will be formed incrementally for  20 cycles.

 Cycle   1  Pass 1  IDiag  1:
 FoFJK:  IHMeth= 1 ICntrl=       0 DoSepK=F KAlg= 0 I1Cent=           0 FoldK=F
 IRaf= 770000000 NMat=       1 IRICut=       1 DoRegI=T DoRafI=F ISym2E= 0 IDoP0=0 IntGTp=1.
 FoFCou: FMM=F IPFlag=           0 FMFlag=      100000 FMFlg1=           0
         NFxFlg=           0 DoJE=F BraDBF=F KetDBF=F FulRan=T
         wScrn=  0.000000 ICntrl=         0 IOpCl=  0 I1Cent=           0 NGrid=           0
         NMat0=    1 NMatS0=      1 NMatT0=    0 NMatD0=    1 NMtDS0=    0 NMtDT0=    0
 Symmetry not used in FoFCou.
 Inv3:  Mode=1 IEnd=    35418288.
 Iteration    1 A*A^-1 deviation from unit magnitude is 3.44D-15 for   2905.
 Iteration    1 A*A^-1 deviation from orthogonality  is 2.89D-15 for   2452    671.
 Iteration    1 A^-1*A deviation from unit magnitude is 3.44D-15 for   2905.
 Iteration    1 A^-1*A deviation from orthogonality  is 8.15D-14 for   1761   1714.
 E= -1135.54228499631    
 DIIS: error= 1.48D-02 at cycle   1 NSaved=   1.
 NSaved= 1 IEnMin= 1 EnMin= -1135.54228499631     IErMin= 1 ErrMin= 1.48D-02
 ErrMax= 1.48D-02  0.00D+00 EMaxC= 1.00D-01 BMatC= 6.15D-01 BMatP= 6.15D-01
 IDIUse=3 WtCom= 8.52D-01 WtEn= 1.48D-01
 Coeff-Com:  0.100D+01
 Coeff-En:   0.100D+01
 Coeff:      0.100D+01
 Gap=     0.175 Goal=   None    Shift=    0.000
 GapD=    0.175 DampG=1.000 DampE=0.500 DampFc=0.5000 IDamp=-1.
 Damping current iteration by 5.00D-01
 RMSDP=2.34D-03 MaxDP=2.72D-01              OVMax= 2.17D-01

 Cycle   2  Pass 1  IDiag  1:
 RMSU=  1.17D-03    CP:  9.95D-01
 E= -1135.80601279293     Delta-E=       -0.263727796616 Rises=F Damp=T
 DIIS: error= 3.01D-03 at cycle   2 NSaved=   2.
 NSaved= 2 IEnMin= 2 EnMin= -1135.80601279293     IErMin= 2 ErrMin= 3.01D-03
 ErrMax= 3.01D-03  0.00D+00 EMaxC= 1.00D-01 BMatC= 4.10D-02 BMatP= 6.15D-01
 IDIUse=3 WtCom= 9.70D-01 WtEn= 3.01D-02
 Coeff-Com:  0.647D-02 0.994D+00
 Coeff-En:   0.498D-01 0.950D+00
 Coeff:      0.778D-02 0.992D+00
 Gap=     0.166 Goal=   None    Shift=    0.000
 RMSDP=6.52D-04 MaxDP=7.50D-02 DE=-2.64D-01 OVMax= 1.69D-01

 Cycle   3  Pass 1  IDiag  1:
 RMSU=  5.59D-04    CP:  9.88D-01  7.15D-01
 E= -1136.09107718172     Delta-E=       -0.285064388798 Rises=F Damp=F
 DIIS: error= 2.40D-03 at cycle   3 NSaved=   3.
 NSaved= 3 IEnMin= 3 EnMin= -1136.09107718172     IErMin= 3 ErrMin= 2.40D-03
 ErrMax= 2.40D-03  0.00D+00 EMaxC= 1.00D-01 BMatC= 3.02D-02 BMatP= 4.10D-02
 IDIUse=3 WtCom= 9.76D-01 WtEn= 2.40D-02
 Coeff-Com: -0.624D-01 0.477D+00 0.585D+00
 Coeff-En:   0.000D+00 0.000D+00 0.100D+01
 Coeff:     -0.609D-01 0.466D+00 0.595D+00
 Gap=     0.157 Goal=   None    Shift=    0.000
 RMSDP=3.41D-04 MaxDP=6.72D-02 DE=-2.85D-01 OVMax= 5.54D-02

 Cycle   4  Pass 1  IDiag  1:
 RMSU=  2.73D-04    CP:  9.81D-01  6.48D-01  6.67D-01
 E= -1136.11378611829     Delta-E=       -0.022708936567 Rises=F Damp=F
 DIIS: error= 1.25D-03 at cycle   4 NSaved=   4.
 NSaved= 4 IEnMin= 4 EnMin= -1136.11378611829     IErMin= 4 ErrMin= 1.25D-03
 ErrMax= 1.25D-03  0.00D+00 EMaxC= 1.00D-01 BMatC= 5.50D-03 BMatP= 3.02D-02
 IDIUse=3 WtCom= 9.87D-01 WtEn= 1.25D-02
 Coeff-Com: -0.355D-01 0.139D+00 0.340D+00 0.557D+00
 Coeff-En:   0.000D+00 0.000D+00 0.153D+00 0.847D+00
 Coeff:     -0.351D-01 0.137D+00 0.337D+00 0.560D+00
 Gap=     0.155 Goal=   None    Shift=    0.000
 RMSDP=1.26D-04 MaxDP=2.19D-02 DE=-2.27D-02 OVMax= 2.25D-02

 Cycle   5  Pass 1  IDiag  1:
 RMSU=  5.11D-05    CP:  9.82D-01  7.03D-01  7.53D-01  6.99D-01
 E= -1136.11896298156     Delta-E=       -0.005176863266 Rises=F Damp=F
 DIIS: error= 3.26D-04 at cycle   5 NSaved=   5.
 NSaved= 5 IEnMin= 5 EnMin= -1136.11896298156     IErMin= 5 ErrMin= 3.26D-04
 ErrMax= 3.26D-04  0.00D+00 EMaxC= 1.00D-01 BMatC= 3.92D-04 BMatP= 5.50D-03
 IDIUse=3 WtCom= 9.97D-01 WtEn= 3.26D-03
 Coeff-Com: -0.141D-01 0.369D-01 0.131D+00 0.294D+00 0.552D+00
 Coeff-En:   0.000D+00 0.000D+00 0.000D+00 0.000D+00 0.100D+01
 Coeff:     -0.141D-01 0.367D-01 0.131D+00 0.293D+00 0.554D+00
 Gap=     0.156 Goal=   None    Shift=    0.000
 RMSDP=2.88D-05 MaxDP=4.63D-03 DE=-5.18D-03 OVMax= 5.69D-03

 Cycle   6  Pass 1  IDiag  1:
 RMSU=  1.80D-05    CP:  9.83D-01  7.03D-01  7.71D-01  6.65D-01  6.51D-01
 E= -1136.11929086952     Delta-E=       -0.000327887962 Rises=F Damp=F
 DIIS: error= 1.30D-04 at cycle   6 NSaved=   6.
 NSaved= 6 IEnMin= 6 EnMin= -1136.11929086952     IErMin= 6 ErrMin= 1.30D-04
 ErrMax= 1.30D-04  0.00D+00 EMaxC= 1.00D-01 BMatC= 5.53D-05 BMatP= 3.92D-04
 IDIUse=3 WtCom= 9.99D-01 WtEn= 1.30D-03
 Coeff-Com: -0.525D-02 0.961D-02 0.487D-01 0.128D+00 0.332D+00 0.486D+00
 Coeff-En:   0.000D+00 0.000D+00 0.000D+00 0.000D+00 0.731D-01 0.927D+00
 Coeff:     -0.524D-02 0.960D-02 0.487D-01 0.128D+00 0.332D+00 0.487D+00
 Gap=     0.156 Goal=   None    Shift=    0.000
 RMSDP=9.55D-06 MaxDP=1.62D-03 DE=-3.28D-04 OVMax= 2.03D-03

 Cycle   7  Pass 1  IDiag  1:
 RMSU=  5.07D-06    CP:  9.83D-01  7.02D-01  7.68D-01  6.81D-01  7.11D-01
                    CP:  6.71D-01
 E= -1136.11933746864     Delta-E=       -0.000046599118 Rises=F Damp=F
 DIIS: error= 3.67D-05 at cycle   7 NSaved=   7.
 NSaved= 7 IEnMin= 7 EnMin= -1136.11933746864     IErMin= 7 ErrMin= 3.67D-05
 ErrMax= 3.67D-05  0.00D+00 EMaxC= 1.00D-01 BMatC= 3.55D-06 BMatP= 5.53D-05
 IDIUse=1 WtCom= 1.00D+00 WtEn= 0.00D+00
 Coeff-Com: -0.181D-02 0.267D-02 0.174D-01 0.493D-01 0.143D+00 0.274D+00
 Coeff-Com:  0.515D+00
 Coeff:     -0.181D-02 0.267D-02 0.174D-01 0.493D-01 0.143D+00 0.274D+00
 Coeff:      0.515D+00
 Gap=     0.156 Goal=   None    Shift=    0.000
 RMSDP=2.90D-06 MaxDP=2.07D-04 DE=-4.66D-05 OVMax= 7.40D-04

 Cycle   8  Pass 1  IDiag  1:
 RMSU=  2.07D-06    CP:  9.83D-01  7.01D-01  7.68D-01  6.83D-01  7.00D-01
                    CP:  6.99D-01  7.32D-01
 E= -1136.11934073006     Delta-E=       -0.000003261424 Rises=F Damp=F
 DIIS: error= 1.24D-05 at cycle   8 NSaved=   8.
 NSaved= 8 IEnMin= 8 EnMin= -1136.11934073006     IErMin= 8 ErrMin= 1.24D-05
 ErrMax= 1.24D-05  0.00D+00 EMaxC= 1.00D-01 BMatC= 4.56D-07 BMatP= 3.55D-06
 IDIUse=1 WtCom= 1.00D+00 WtEn= 0.00D+00
 Coeff-Com: -0.164D-03-0.132D-03 0.216D-02 0.755D-02 0.279D-01 0.747D-01
 Coeff-Com:  0.297D+00 0.591D+00
 Coeff:     -0.164D-03-0.132D-03 0.216D-02 0.755D-02 0.279D-01 0.747D-01
 Coeff:      0.297D+00 0.591D+00
 Gap=     0.156 Goal=   None    Shift=    0.000
 RMSDP=1.06D-06 MaxDP=1.53D-04 DE=-3.26D-06 OVMax= 2.00D-04

 Cycle   9  Pass 1  IDiag  1:
 RMSU=  6.23D-07    CP:  9.83D-01  7.01D-01  7.69D-01  6.82D-01  7.02D-01
                    CP:  7.14D-01  8.01D-01  8.33D-01
 E= -1136.11934114307     Delta-E=       -0.000000413007 Rises=F Damp=F
 DIIS: error= 2.96D-06 at cycle   9 NSaved=   9.
 NSaved= 9 IEnMin= 9 EnMin= -1136.11934114307     IErMin= 9 ErrMin= 2.96D-06
 ErrMax= 2.96D-06  0.00D+00 EMaxC= 1.00D-01 BMatC= 4.10D-08 BMatP= 4.56D-07
 IDIUse=1 WtCom= 1.00D+00 WtEn= 0.00D+00
 Coeff-Com:  0.427D-04-0.286D-03-0.383D-04 0.599D-03 0.524D-02 0.209D-01
 Coeff-Com:  0.128D+00 0.324D+00 0.522D+00
 Coeff:      0.427D-04-0.286D-03-0.383D-04 0.599D-03 0.524D-02 0.209D-01
 Coeff:      0.128D+00 0.324D+00 0.522D+00
 Gap=     0.156 Goal=   None    Shift=    0.000
 RMSDP=2.31D-07 MaxDP=2.03D-05 DE=-4.13D-07 OVMax= 4.58D-05

 Cycle  10  Pass 1  IDiag  1:
 RMSU=  1.75D-07    CP:  9.83D-01  7.01D-01  7.69D-01  6.82D-01  7.02D-01
                    CP:  7.15D-01  8.07D-01  8.66D-01  8.34D-01
 E= -1136.11934117560     Delta-E=       -0.000000032527 Rises=F Damp=F
 DIIS: error= 8.67D-07 at cycle  10 NSaved=  10.
 NSaved=10 IEnMin=10 EnMin= -1136.11934117560     IErMin=10 ErrMin= 8.67D-07
 ErrMax= 8.67D-07  0.00D+00 EMaxC= 1.00D-01 BMatC= 3.37D-09 BMatP= 4.10D-08
 IDIUse=1 WtCom= 1.00D+00 WtEn= 0.00D+00
 Coeff-Com:  0.383D-04-0.103D-03-0.254D-03-0.665D-03-0.905D-03 0.249D-03
 Coeff-Com:  0.230D-01 0.747D-01 0.255D+00 0.649D+00
 Coeff:      0.383D-04-0.103D-03-0.254D-03-0.665D-03-0.905D-03 0.249D-03
 Coeff:      0.230D-01 0.747D-01 0.255D+00 0.649D+00
 Gap=     0.156 Goal=   None    Shift=    0.000
 RMSDP=7.39D-08 MaxDP=5.56D-06 DE=-3.25D-08 OVMax= 1.77D-05

 Cycle  11  Pass 1  IDiag  1:
 RMSU=  4.50D-08    CP:  9.83D-01  7.01D-01  7.69D-01  6.81D-01  7.02D-01
                    CP:  7.16D-01  8.12D-01  8.72D-01  8.71D-01  7.98D-01
 E= -1136.11934117855     Delta-E=       -0.000000002958 Rises=F Damp=F
 DIIS: error= 1.96D-07 at cycle  11 NSaved=  11.
 NSaved=11 IEnMin=11 EnMin= -1136.11934117855     IErMin=11 ErrMin= 1.96D-07
 ErrMax= 1.96D-07  0.00D+00 EMaxC= 1.00D-01 BMatC= 2.18D-10 BMatP= 3.37D-09
 IDIUse=1 WtCom= 1.00D+00 WtEn= 0.00D+00
 Coeff-Com:  0.162D-04-0.356D-04-0.118D-03-0.358D-03-0.681D-03-0.905D-03
 Coeff-Com:  0.431D-02 0.179D-01 0.869D-01 0.305D+00 0.588D+00
 Coeff:      0.162D-04-0.356D-04-0.118D-03-0.358D-03-0.681D-03-0.905D-03
 Coeff:      0.431D-02 0.179D-01 0.869D-01 0.305D+00 0.588D+00
 Gap=     0.156 Goal=   None    Shift=    0.000
 RMSDP=2.04D-08 MaxDP=1.70D-06 DE=-2.96D-09 OVMax= 3.32D-06

 Cycle  12  Pass 1  IDiag  1:
 RMSU=  1.57D-08    CP:  9.83D-01  7.01D-01  7.69D-01  6.81D-01  7.02D-01
                    CP:  7.16D-01  8.12D-01  8.76D-01  8.79D-01  8.20D-01
                    CP:  9.29D-01
 E= -1136.11934117871     Delta-E=       -0.000000000155 Rises=F Damp=F
 DIIS: error= 8.40D-08 at cycle  12 NSaved=  12.
 NSaved=12 IEnMin=12 EnMin= -1136.11934117871     IErMin=12 ErrMin= 8.40D-08
 ErrMax= 8.40D-08  0.00D+00 EMaxC= 1.00D-01 BMatC= 2.54D-11 BMatP= 2.18D-10
 IDIUse=1 WtCom= 1.00D+00 WtEn= 0.00D+00
 Coeff-Com:  0.135D-05-0.208D-06-0.112D-04-0.593D-04-0.152D-03-0.401D-03
 Coeff-Com: -0.164D-02-0.351D-02-0.187D-02 0.442D-01 0.277D+00 0.686D+00
 Coeff:      0.135D-05-0.208D-06-0.112D-04-0.593D-04-0.152D-03-0.401D-03
 Coeff:     -0.164D-02-0.351D-02-0.187D-02 0.442D-01 0.277D+00 0.686D+00
 Gap=     0.156 Goal=   None    Shift=    0.000
 RMSDP=8.05D-09 MaxDP=6.75D-07 DE=-1.55D-10 OVMax= 1.24D-06

 Error on total polarization charges =  0.05629
 SCF Done:  E(RB3LYP) =  -1136.11934118     A.U. after   12 cycles
            NFock= 12  Conv=0.81D-08     -V/T= 2.0054
 KE= 1.130005326453D+03 PE=-7.287072754461D+03 EE= 2.701033601655D+03
 SMD-CDS (non-electrostatic) energy       (kcal/mol) =      -6.99
 (included in total energy above)
 Leave Link  502 at Tue Jun 11 18:07:14 2024, MaxMem=  8589934592 cpu:           16238.6 elap:             511.7
 (Enter /opt/packages/gaussian/g16RevC.01/g16/l601.exe)
 Copying SCF densities to generalized density rwf, IOpCl= 0 IROHF=0.

 **********************************************************************

            Population analysis using the SCF Density.

 **********************************************************************

 Alpha  occ. eigenvalues --  -24.69699 -19.12743 -14.33166 -14.29319 -10.26133
 Alpha  occ. eigenvalues --  -10.24016 -10.21405 -10.21357 -10.20975 -10.19956
 Alpha  occ. eigenvalues --  -10.19598 -10.19327 -10.19162 -10.18878 -10.18647
 Alpha  occ. eigenvalues --  -10.18354 -10.18075 -10.17643 -10.17473 -10.17431
 Alpha  occ. eigenvalues --  -10.17378 -10.17356 -10.17328 -10.16791 -10.16590
 Alpha  occ. eigenvalues --  -10.16190  -1.23626  -1.04605  -0.97154  -0.91525
 Alpha  occ. eigenvalues --   -0.87387  -0.85109  -0.81305  -0.78874  -0.77586
 Alpha  occ. eigenvalues --   -0.77257  -0.74482  -0.74055  -0.72554  -0.70441
 Alpha  occ. eigenvalues --   -0.69143  -0.66024  -0.64067  -0.63103  -0.61164
 Alpha  occ. eigenvalues --   -0.60171  -0.59392  -0.57891  -0.55906  -0.54283
 Alpha  occ. eigenvalues --   -0.52723  -0.51252  -0.50338  -0.49429  -0.48741
 Alpha  occ. eigenvalues --   -0.48549  -0.47795  -0.47478  -0.46140  -0.45645
 Alpha  occ. eigenvalues --   -0.45235  -0.45079  -0.44410  -0.44343  -0.42997
 Alpha  occ. eigenvalues --   -0.42374  -0.41968  -0.41767  -0.41266  -0.39573
 Alpha  occ. eigenvalues --   -0.39017  -0.38995  -0.38240  -0.37577  -0.37208
 Alpha  occ. eigenvalues --   -0.37070  -0.36420  -0.35621  -0.35256  -0.35025
 Alpha  occ. eigenvalues --   -0.34141  -0.33629  -0.31235  -0.30146  -0.28058
 Alpha  occ. eigenvalues --   -0.27639  -0.26148  -0.25718  -0.25294  -0.24761
 Alpha  occ. eigenvalues --   -0.23141  -0.20205
 Alpha virt. eigenvalues --   -0.04624  -0.02684  -0.01575  -0.00537   0.00636
 Alpha virt. eigenvalues --    0.01369   0.04072   0.05179   0.05837   0.06256
 Alpha virt. eigenvalues --    0.06557   0.07633   0.07958   0.08025   0.08921
 Alpha virt. eigenvalues --    0.09140   0.09801   0.10098   0.10583   0.11102
 Alpha virt. eigenvalues --    0.11303   0.11561   0.11663   0.12222   0.12633
 Alpha virt. eigenvalues --    0.12757   0.13117   0.13727   0.13999   0.14225
 Alpha virt. eigenvalues --    0.14594   0.15146   0.15541   0.16056   0.16405
 Alpha virt. eigenvalues --    0.16798   0.17332   0.18275   0.18866   0.19306
 Alpha virt. eigenvalues --    0.19712   0.19731   0.20127   0.20649   0.20765
 Alpha virt. eigenvalues --    0.21317   0.21770   0.21984   0.22595   0.23123
 Alpha virt. eigenvalues --    0.23183   0.23676   0.23994   0.24492   0.24915
 Alpha virt. eigenvalues --    0.24997   0.25825   0.26241   0.26957   0.27002
 Alpha virt. eigenvalues --    0.27758   0.28356   0.28563   0.28847   0.29291
 Alpha virt. eigenvalues --    0.30055   0.30258   0.30667   0.31187   0.31345
 Alpha virt. eigenvalues --    0.31566   0.31915   0.32013   0.32729   0.32963
 Alpha virt. eigenvalues --    0.33251   0.34144   0.34889   0.35046   0.35232
 Alpha virt. eigenvalues --    0.35484   0.35877   0.36284   0.36465   0.36860
 Alpha virt. eigenvalues --    0.37093   0.37713   0.37807   0.38219   0.38532
 Alpha virt. eigenvalues --    0.38859   0.39305   0.39876   0.40130   0.40389
 Alpha virt. eigenvalues --    0.40776   0.41237   0.41517   0.41966   0.42202
 Alpha virt. eigenvalues --    0.42276   0.42553   0.42985   0.43369   0.43658
 Alpha virt. eigenvalues --    0.43865   0.44261   0.44678   0.45079   0.45499
 Alpha virt. eigenvalues --    0.45682   0.45891   0.46659   0.46860   0.46996
 Alpha virt. eigenvalues --    0.47717   0.47800   0.48056   0.48269   0.48488
 Alpha virt. eigenvalues --    0.49313   0.49434   0.49756   0.50025   0.50517
 Alpha virt. eigenvalues --    0.50812   0.51336   0.51679   0.51890   0.52383
 Alpha virt. eigenvalues --    0.53523   0.53776   0.54307   0.54527   0.55108
 Alpha virt. eigenvalues --    0.55588   0.55910   0.57385   0.57565   0.58047
 Alpha virt. eigenvalues --    0.58631   0.59644   0.60495   0.61248   0.61410
 Alpha virt. eigenvalues --    0.61727   0.61945   0.62461   0.63470   0.63806
 Alpha virt. eigenvalues --    0.64029   0.64846   0.65234   0.65397   0.65549
 Alpha virt. eigenvalues --    0.65973   0.66862   0.67607   0.67876   0.68501
 Alpha virt. eigenvalues --    0.68924   0.69154   0.69605   0.69916   0.70139
 Alpha virt. eigenvalues --    0.70644   0.70845   0.71051   0.71984   0.72408
 Alpha virt. eigenvalues --    0.72807   0.73214   0.73744   0.74653   0.75069
 Alpha virt. eigenvalues --    0.75504   0.75692   0.76781   0.76874   0.77500
 Alpha virt. eigenvalues --    0.78508   0.79008   0.79290   0.79431   0.79864
 Alpha virt. eigenvalues --    0.81065   0.81796   0.82110   0.82711   0.82811
 Alpha virt. eigenvalues --    0.83401   0.84172   0.84998   0.85333   0.85799
 Alpha virt. eigenvalues --    0.86352   0.86831   0.87512   0.87833   0.88052
 Alpha virt. eigenvalues --    0.88519   0.88789   0.88808   0.89324   0.89576
 Alpha virt. eigenvalues --    0.90425   0.91150   0.91477   0.91703   0.92236
 Alpha virt. eigenvalues --    0.92614   0.92892   0.93813   0.94386   0.94886
 Alpha virt. eigenvalues --    0.95381   0.95864   0.96983   0.97332   0.97603
 Alpha virt. eigenvalues --    0.98164   0.99104   0.99569   0.99814   1.00926
 Alpha virt. eigenvalues --    1.01106   1.01339   1.01646   1.02279   1.03222
 Alpha virt. eigenvalues --    1.03654   1.04348   1.04717   1.05142   1.05965
 Alpha virt. eigenvalues --    1.06358   1.06794   1.07154   1.07661   1.08420
 Alpha virt. eigenvalues --    1.08636   1.09628   1.09847   1.10409   1.11294
 Alpha virt. eigenvalues --    1.11874   1.12006   1.12720   1.13146   1.13581
 Alpha virt. eigenvalues --    1.14109   1.14523   1.14783   1.15765   1.16154
 Alpha virt. eigenvalues --    1.16238   1.16910   1.17317   1.17618   1.18124
 Alpha virt. eigenvalues --    1.18565   1.19267   1.19385   1.20168   1.20803
 Alpha virt. eigenvalues --    1.21552   1.22330   1.22731   1.23298   1.23845
 Alpha virt. eigenvalues --    1.24272   1.25035   1.25141   1.25716   1.26613
 Alpha virt. eigenvalues --    1.26740   1.27310   1.27522   1.27791   1.28457
 Alpha virt. eigenvalues --    1.28860   1.29024   1.29831   1.30488   1.30611
 Alpha virt. eigenvalues --    1.31265   1.31551   1.32294   1.32815   1.33575
 Alpha virt. eigenvalues --    1.34304   1.34524   1.34704   1.35025   1.35965
 Alpha virt. eigenvalues --    1.36408   1.37226   1.37334   1.38258   1.38507
 Alpha virt. eigenvalues --    1.38628   1.38916   1.39744   1.40019   1.40992
 Alpha virt. eigenvalues --    1.41395   1.42154   1.42621   1.43072   1.43519
 Alpha virt. eigenvalues --    1.43767   1.43992   1.44489   1.45293   1.45748
 Alpha virt. eigenvalues --    1.45885   1.46035   1.47203   1.47481   1.47878
 Alpha virt. eigenvalues --    1.48672   1.48954   1.49273   1.49588   1.50954
 Alpha virt. eigenvalues --    1.51899   1.52604   1.53267   1.53970   1.54518
 Alpha virt. eigenvalues --    1.54899   1.55128   1.55455   1.56143   1.56999
 Alpha virt. eigenvalues --    1.57201   1.57710   1.58354   1.59105   1.59179
 Alpha virt. eigenvalues --    1.59832   1.60012   1.61042   1.62213   1.62993
 Alpha virt. eigenvalues --    1.63631   1.64433   1.64665   1.65354   1.65381
 Alpha virt. eigenvalues --    1.66077   1.67165   1.67482   1.68251   1.68652
 Alpha virt. eigenvalues --    1.69379   1.69704   1.70635   1.71923   1.72812
 Alpha virt. eigenvalues --    1.73000   1.73173   1.73883   1.74953   1.75377
 Alpha virt. eigenvalues --    1.76094   1.76914   1.77331   1.78471   1.79007
 Alpha virt. eigenvalues --    1.79586   1.80474   1.80633   1.81202   1.83178
 Alpha virt. eigenvalues --    1.83822   1.84109   1.85539   1.86498   1.87508
 Alpha virt. eigenvalues --    1.88891   1.89283   1.89709   1.90404   1.91661
 Alpha virt. eigenvalues --    1.92347   1.93497   1.94127   1.94463   1.95738
 Alpha virt. eigenvalues --    1.96493   1.96845   1.98475   1.99304   1.99659
 Alpha virt. eigenvalues --    2.00466   2.01857   2.02096   2.02844   2.03185
 Alpha virt. eigenvalues --    2.03854   2.05013   2.05454   2.05899   2.06458
 Alpha virt. eigenvalues --    2.06686   2.07758   2.08250   2.09947   2.10242
 Alpha virt. eigenvalues --    2.11515   2.11985   2.12419   2.12815   2.14467
 Alpha virt. eigenvalues --    2.14687   2.15706   2.17328   2.17907   2.19297
 Alpha virt. eigenvalues --    2.19655   2.21644   2.22550   2.23422   2.25018
 Alpha virt. eigenvalues --    2.25577   2.26370   2.26436   2.26907   2.29001
 Alpha virt. eigenvalues --    2.29302   2.30364   2.30603   2.31414   2.32479
 Alpha virt. eigenvalues --    2.32683   2.35014   2.35634   2.36161   2.36755
 Alpha virt. eigenvalues --    2.37622   2.37837   2.38830   2.39195   2.39548
 Alpha virt. eigenvalues --    2.40901   2.43517   2.43737   2.44517   2.45525
 Alpha virt. eigenvalues --    2.46309   2.48045   2.48868   2.49715   2.51259
 Alpha virt. eigenvalues --    2.51516   2.54433   2.55469   2.56082   2.56891
 Alpha virt. eigenvalues --    2.57194   2.57884   2.58063   2.58785   2.60788
 Alpha virt. eigenvalues --    2.61475   2.61722   2.62834   2.64342   2.64752
 Alpha virt. eigenvalues --    2.65126   2.66669   2.67324   2.67549   2.68838
 Alpha virt. eigenvalues --    2.69979   2.70231   2.71170   2.71634   2.71696
 Alpha virt. eigenvalues --    2.71985   2.73063   2.74223   2.74643   2.75160
 Alpha virt. eigenvalues --    2.76022   2.76199   2.76740   2.77400   2.78191
 Alpha virt. eigenvalues --    2.78735   2.79322   2.79791   2.80371   2.80826
 Alpha virt. eigenvalues --    2.81493   2.82109   2.82438   2.82696   2.83240
 Alpha virt. eigenvalues --    2.83528   2.84254   2.84841   2.85287   2.86014
 Alpha virt. eigenvalues --    2.86507   2.87623   2.87842   2.88284   2.89298
 Alpha virt. eigenvalues --    2.90057   2.90854   2.91440   2.91504   2.92063
 Alpha virt. eigenvalues --    2.92741   2.93716   2.94313   2.94984   2.95304
 Alpha virt. eigenvalues --    2.95439   2.95976   2.96818   2.97284   2.97949
 Alpha virt. eigenvalues --    2.98527   2.98773   2.99368   2.99724   2.99819
 Alpha virt. eigenvalues --    2.99993   3.00595   3.01003   3.01220   3.01512
 Alpha virt. eigenvalues --    3.02201   3.02700   3.03366   3.03505   3.03933
 Alpha virt. eigenvalues --    3.04231   3.04577   3.04862   3.05712   3.05854
 Alpha virt. eigenvalues --    3.06338   3.06432   3.07066   3.07528   3.07817
 Alpha virt. eigenvalues --    3.08039   3.08648   3.09258   3.10026   3.10733
 Alpha virt. eigenvalues --    3.11044   3.11311   3.11521   3.12018   3.12744
 Alpha virt. eigenvalues --    3.12887   3.13545   3.14050   3.14143   3.15003
 Alpha virt. eigenvalues --    3.15552   3.15822   3.16154   3.16436   3.16512
 Alpha virt. eigenvalues --    3.17031   3.17531   3.18264   3.18367   3.19054
 Alpha virt. eigenvalues --    3.19489   3.19910   3.20942   3.21305   3.22227
 Alpha virt. eigenvalues --    3.22364   3.22461   3.23431   3.23797   3.24069
 Alpha virt. eigenvalues --    3.25030   3.25357   3.26063   3.26805   3.26904
 Alpha virt. eigenvalues --    3.27084   3.27952   3.28333   3.29142   3.30087
 Alpha virt. eigenvalues --    3.30485   3.30994   3.31223   3.31669   3.32078
 Alpha virt. eigenvalues --    3.32640   3.33232   3.33614   3.34408   3.34755
 Alpha virt. eigenvalues --    3.35251   3.35427   3.35668   3.36270   3.37065
 Alpha virt. eigenvalues --    3.37694   3.38156   3.38450   3.39439   3.39801
 Alpha virt. eigenvalues --    3.40105   3.40482   3.40873   3.41463   3.41890
 Alpha virt. eigenvalues --    3.42239   3.43060   3.44025   3.44425   3.45052
 Alpha virt. eigenvalues --    3.45670   3.46505   3.47025   3.47328   3.47512
 Alpha virt. eigenvalues --    3.47681   3.48287   3.48756   3.49626   3.49842
 Alpha virt. eigenvalues --    3.50943   3.51200   3.51523   3.52012   3.52554
 Alpha virt. eigenvalues --    3.52917   3.53552   3.53808   3.54771   3.55240
 Alpha virt. eigenvalues --    3.55603   3.56085   3.57202   3.57451   3.58168
 Alpha virt. eigenvalues --    3.58704   3.59039   3.59992   3.60123   3.60891
 Alpha virt. eigenvalues --    3.61838   3.62353   3.62845   3.63708   3.63796
 Alpha virt. eigenvalues --    3.64348   3.64625   3.65315   3.66066   3.66776
 Alpha virt. eigenvalues --    3.67734   3.68203   3.68725   3.68878   3.69927
 Alpha virt. eigenvalues --    3.70359   3.70425   3.71331   3.71936   3.72703
 Alpha virt. eigenvalues --    3.72979   3.74034   3.74214   3.74954   3.75816
 Alpha virt. eigenvalues --    3.76186   3.76750   3.77034   3.77301   3.77661
 Alpha virt. eigenvalues --    3.78111   3.79057   3.79253   3.79840   3.80116
 Alpha virt. eigenvalues --    3.80320   3.81102   3.81708   3.82101   3.82856
 Alpha virt. eigenvalues --    3.83557   3.84201   3.84685   3.84836   3.85699
 Alpha virt. eigenvalues --    3.86245   3.86674   3.87891   3.88430   3.89164
 Alpha virt. eigenvalues --    3.89392   3.90237   3.90911   3.91212   3.92491
 Alpha virt. eigenvalues --    3.92686   3.93783   3.94195   3.94701   3.94777
 Alpha virt. eigenvalues --    3.96323   3.96792   3.96911   3.97716   3.98390
 Alpha virt. eigenvalues --    4.00006   4.00288   4.00505   4.01196   4.01447
 Alpha virt. eigenvalues --    4.01687   4.02366   4.03145   4.04145   4.04225
 Alpha virt. eigenvalues --    4.04444   4.05784   4.06844   4.07491   4.07891
 Alpha virt. eigenvalues --    4.08073   4.08546   4.08944   4.09269   4.10080
 Alpha virt. eigenvalues --    4.10708   4.11031   4.11268   4.11778   4.12282
 Alpha virt. eigenvalues --    4.12621   4.13309   4.14382   4.15035   4.15513
 Alpha virt. eigenvalues --    4.15790   4.16360   4.16670   4.17277   4.17813
 Alpha virt. eigenvalues --    4.18285   4.18752   4.19575   4.19776   4.20410
 Alpha virt. eigenvalues --    4.20660   4.20858   4.21982   4.22149   4.22918
 Alpha virt. eigenvalues --    4.23272   4.23614   4.24755   4.25212   4.25384
 Alpha virt. eigenvalues --    4.26032   4.26279   4.27028   4.27539   4.28309
 Alpha virt. eigenvalues --    4.28641   4.29334   4.30392   4.30678   4.31120
 Alpha virt. eigenvalues --    4.31870   4.32614   4.33170   4.33796   4.35264
 Alpha virt. eigenvalues --    4.35507   4.35890   4.37128   4.37238   4.38006
 Alpha virt. eigenvalues --    4.39106   4.39479   4.40129   4.40442   4.41036
 Alpha virt. eigenvalues --    4.42105   4.42652   4.42744   4.43422   4.44106
 Alpha virt. eigenvalues --    4.46301   4.46827   4.47362   4.48845   4.49059
 Alpha virt. eigenvalues --    4.50196   4.51897   4.53115   4.53951   4.54177
 Alpha virt. eigenvalues --    4.55483   4.57236   4.58330   4.59374   4.59897
 Alpha virt. eigenvalues --    4.60865   4.61783   4.63229   4.64506   4.64896
 Alpha virt. eigenvalues --    4.65640   4.66136   4.66594   4.67304   4.67955
 Alpha virt. eigenvalues --    4.68794   4.69036   4.69309   4.70838   4.70941
 Alpha virt. eigenvalues --    4.71403   4.72534   4.73665   4.74732   4.75301
 Alpha virt. eigenvalues --    4.75939   4.76548   4.77187   4.78280   4.79070
 Alpha virt. eigenvalues --    4.79297   4.80068   4.81201   4.82134   4.83104
 Alpha virt. eigenvalues --    4.83738   4.84440   4.85799   4.86362   4.86842
 Alpha virt. eigenvalues --    4.87828   4.88228   4.89498   4.90247   4.91970
 Alpha virt. eigenvalues --    4.92919   4.93862   4.94743   4.95692   4.95931
 Alpha virt. eigenvalues --    4.98176   4.99621   5.00582   5.01404   5.02859
 Alpha virt. eigenvalues --    5.03383   5.04720   5.05523   5.06284   5.07272
 Alpha virt. eigenvalues --    5.08434   5.09420   5.10023   5.10510   5.10951
 Alpha virt. eigenvalues --    5.12707   5.13780   5.14803   5.15570   5.17356
 Alpha virt. eigenvalues --    5.18067   5.18706   5.20422   5.20996   5.21351
 Alpha virt. eigenvalues --    5.22086   5.22556   5.23009   5.25564   5.26691
 Alpha virt. eigenvalues --    5.27232   5.28605   5.30512   5.31322   5.32559
 Alpha virt. eigenvalues --    5.32980   5.33303   5.33892   5.34548   5.35222
 Alpha virt. eigenvalues --    5.35737   5.36018   5.38006   5.38176   5.38997
 Alpha virt. eigenvalues --    5.40144   5.41160   5.41917   5.42624   5.44017
 Alpha virt. eigenvalues --    5.44267   5.45476   5.46407   5.46842   5.48286
 Alpha virt. eigenvalues --    5.48816   5.49491   5.50415   5.51499   5.52536
 Alpha virt. eigenvalues --    5.54294   5.54757   5.56128   5.57115   5.59480
 Alpha virt. eigenvalues --    5.61123   5.61432   5.62455   5.62572   5.64621
 Alpha virt. eigenvalues --    5.65632   5.66447   5.67834   5.70194   5.70870
 Alpha virt. eigenvalues --    5.71578   5.71948   5.72787   5.73290   5.76116
 Alpha virt. eigenvalues --    5.79885   5.80298   5.82524   5.84974   5.86232
 Alpha virt. eigenvalues --    5.88474   5.92528   5.95170   5.98856   6.01315
 Alpha virt. eigenvalues --    6.03120   6.04132   6.06062   6.08102   6.08132
 Alpha virt. eigenvalues --    6.10519   6.13976   6.19440   6.20722   6.27464
 Alpha virt. eigenvalues --    6.35956   6.42278   6.47455   6.66570   6.67947
 Alpha virt. eigenvalues --    6.76998   6.86226   6.87978   6.92318   6.98330
 Alpha virt. eigenvalues --    7.02388   7.10150   7.24427   7.35306   7.41411
 Alpha virt. eigenvalues --    7.45287   7.64522   8.36536   8.56292   8.76395
 Alpha virt. eigenvalues --    9.02564   9.03374  22.53579  22.81173  22.86310
 Alpha virt. eigenvalues --   23.03165  23.06691  23.11145  23.13537  23.16873
 Alpha virt. eigenvalues --   23.17204  23.19344  23.23847  23.25618  23.29466
 Alpha virt. eigenvalues --   23.29879  23.38298  23.39452  23.44359  23.50120
 Alpha virt. eigenvalues --   23.55860  23.70335  23.89592  24.11770  32.78631
 Alpha virt. eigenvalues --   33.25206  44.27909  57.38608
          Condensed to atoms (all electrons):
               1          2          3          4          5          6
     1  C    5.256299   0.416933  -0.019681  -0.044124  -0.096597   0.467469
     2  C    0.416933   5.295813   0.364171  -0.048870  -0.020633  -0.074797
     3  C   -0.019681   0.364171   5.158477   0.442308  -0.044990  -0.027694
     4  C   -0.044124  -0.048870   0.442308   5.195167   0.426348  -0.069109
     5  C   -0.096597  -0.020633  -0.044990   0.426348   4.863623   0.493497
     6  N    0.467469  -0.074797  -0.027694  -0.069109   0.493497   6.703780
     7  H   -0.001156   0.010043  -0.036606   0.415753  -0.030488   0.005870
     8  C    0.263169  -0.076695  -0.000642   0.007979  -0.019687  -0.073882
     9  C   -0.147211   0.008948  -0.003220   0.000538   0.004906   0.033475
    10  C    0.043656  -0.002844  -0.000279   0.000060   0.000336   0.000589
    11  C    0.028766  -0.003655  -0.000507   0.000032   0.000127   0.000356
    12  C   -0.017666   0.000995   0.000138  -0.000010  -0.000072  -0.000114
    13  H   -0.000044   0.000005   0.000002  -0.000001  -0.000001   0.000036
    14  H    0.000122   0.000016   0.000000   0.000000   0.000000  -0.000004
    15  H    0.000522  -0.000181  -0.000008   0.000000   0.000003   0.000041
    16  C   -0.189788   0.004346   0.007578  -0.000183  -0.004134  -0.016664
    17  C   -0.054866   0.000929  -0.000116  -0.000450  -0.001481  -0.021938
    18  C   -0.008550   0.000650  -0.000042   0.000386  -0.000145   0.006863
    19  C    0.008817  -0.006973  -0.001228   0.000408  -0.001597  -0.005316
    20  C   -0.000788   0.000003  -0.000024   0.000012   0.000657   0.000180
    21  H    0.000009  -0.000007   0.000001  -0.000004  -0.000021  -0.000232
    22  C    0.002384   0.000336   0.000707  -0.001504  -0.000409  -0.001903
    23  H   -0.002252   0.002239   0.000705   0.000156  -0.001358  -0.004706
    24  C    0.000168  -0.000014   0.000005   0.000030  -0.000154   0.000949
    25  H   -0.000001   0.000000   0.000000   0.000000   0.000002  -0.000009
    26  H    0.000073   0.000014   0.000025  -0.000022  -0.000003   0.000017
    27  H    0.000002   0.000000   0.000000  -0.000003  -0.000010   0.000006
    28  F   -0.015475   0.008663  -0.002272   0.000179  -0.000401  -0.002722
    29  C    0.009081  -0.079196   0.333339  -0.074712   0.013599  -0.001612
    30  H   -0.001266  -0.005497  -0.040800   0.002457  -0.000360   0.000128
    31  H   -0.000461  -0.005195  -0.043785   0.003520  -0.000510   0.000191
    32  H   -0.000217   0.009937  -0.049224  -0.008191   0.000144   0.000117
    33  C   -0.002856   0.001055   0.002052  -0.018025  -0.056628   0.004478
    34  C   -0.007278   0.001086  -0.001337   0.013534  -0.071789  -0.021521
    35  C   -0.000411   0.000149  -0.000335  -0.000998  -0.009745  -0.000816
    36  H   -0.000922   0.000705   0.001568   0.000891  -0.030894  -0.000048
    37  H    0.001058  -0.000612   0.000089  -0.001233   0.018727   0.001660
    38  C    0.000150   0.000084   0.000123  -0.000196  -0.003621   0.005499
    39  H   -0.000545   0.000696  -0.000247  -0.000553  -0.029260   0.007295
    40  H    0.002916  -0.000450   0.000293  -0.001303   0.008822   0.008742
    41  H    0.000041  -0.000021  -0.000065  -0.001375   0.000826   0.000066
    42  H    0.000011  -0.000004   0.000018   0.000008   0.000268   0.000029
    43  H    0.000184  -0.000010   0.000008  -0.001008  -0.000836   0.000129
    44  H    0.000030  -0.000001  -0.000003   0.000084  -0.000037   0.000089
    45  N   -0.007031   0.005644  -0.002473  -0.068387   0.429360  -0.099304
    46  O    0.000003   0.000001   0.000002   0.000350  -0.005006   0.000046
    47  H   -0.024581   0.412928  -0.051004   0.009930   0.000150   0.008541
               7          8          9         10         11         12
     1  C   -0.001156   0.263169  -0.147211   0.043656   0.028766  -0.017666
     2  C    0.010043  -0.076695   0.008948  -0.002844  -0.003655   0.000995
     3  C   -0.036606  -0.000642  -0.003220  -0.000279  -0.000507   0.000138
     4  C    0.415753   0.007979   0.000538   0.000060   0.000032  -0.000010
     5  C   -0.030488  -0.019687   0.004906   0.000336   0.000127  -0.000072
     6  N    0.005870  -0.073882   0.033475   0.000589   0.000356  -0.000114
     7  H    0.524035   0.000170  -0.000057   0.000000   0.000001   0.000000
     8  C    0.000170   5.960110   0.120758   0.087870   0.101029  -0.135084
     9  C   -0.000057   0.120758   5.523280   0.337696  -0.125799   0.031586
    10  C    0.000000   0.087870   0.337696   5.171946   0.010108   0.425366
    11  C    0.000001   0.101029  -0.125799   0.010108   5.087249   0.400189
    12  C    0.000000  -0.135084   0.031586   0.425366   0.400189   5.008845
    13  H    0.000000   0.008155  -0.032831   0.419187   0.005274  -0.028612
    14  H    0.000000  -0.001105   0.005280  -0.030053  -0.025441   0.412706
    15  H    0.000000   0.025758  -0.006125   0.012189   0.429846  -0.039392
    16  C    0.000038   0.067961   0.112527  -0.153424   0.384634   0.039765
    17  C    0.000029  -0.086928   0.184642  -0.109511  -0.004078   0.008193
    18  C   -0.000001   0.006510  -0.112066  -0.014061  -0.000608   0.000818
    19  C    0.000048  -0.014767  -0.083733   0.002678   0.000245  -0.000917
    20  C    0.000001  -0.001236  -0.000543   0.000042   0.000020  -0.000025
    21  H    0.000000   0.000416  -0.001730   0.001029  -0.000165   0.000269
    22  C    0.000002   0.002679  -0.002622  -0.001501  -0.000030   0.000112
    23  H   -0.000001   0.006641  -0.006513  -0.000125  -0.000184   0.000034
    24  C   -0.000008  -0.000333  -0.002138   0.000344   0.000003  -0.000016
    25  H    0.000000   0.000031  -0.000523  -0.000037   0.000000  -0.000001
    26  H    0.000001  -0.000059  -0.000432   0.000013   0.000000   0.000000
    27  H    0.000000  -0.000005   0.000049  -0.000001   0.000000   0.000000
    28  F    0.000002  -0.122475   0.013876  -0.004415  -0.064227   0.011126
    29  C   -0.010126  -0.001474   0.000062  -0.000004   0.000000   0.000001
    30  H    0.000237  -0.000210  -0.000007   0.000000   0.000001   0.000000
    31  H    0.000394  -0.000125  -0.000007   0.000001   0.000002   0.000000
    32  H    0.003783   0.000055  -0.000001   0.000000   0.000000   0.000000
    33  C   -0.006351  -0.000341   0.000113   0.000003   0.000000   0.000000
    34  C   -0.000029   0.000148  -0.001150  -0.000013  -0.000007   0.000008
    35  C   -0.000077  -0.000038   0.000007   0.000000   0.000000   0.000000
    36  H   -0.003406  -0.000058   0.000011   0.000000   0.000000   0.000000
    37  H    0.000301   0.000061  -0.000019   0.000000   0.000000   0.000000
    38  C   -0.000492  -0.000371   0.000452   0.000006   0.000000   0.000000
    39  H   -0.000158  -0.002701   0.001811   0.000370   0.000020  -0.000027
    40  H   -0.000059   0.000832  -0.000441  -0.000052  -0.000004   0.000003
    41  H   -0.000511  -0.000002   0.000001   0.000000   0.000000   0.000000
    42  H    0.000196   0.000001   0.000000   0.000000   0.000000   0.000000
    43  H   -0.000044   0.000011  -0.000008  -0.000001   0.000000   0.000000
    44  H    0.000004   0.000028  -0.000038  -0.000002   0.000000   0.000000
    45  N    0.001023  -0.002699   0.000042   0.000026   0.000005  -0.000002
    46  O    0.000046   0.000002  -0.000002   0.000000   0.000000   0.000000
    47  H   -0.000008   0.002005   0.001075   0.000566  -0.000316  -0.000279
              13         14         15         16         17         18
     1  C   -0.000044   0.000122   0.000522  -0.189788  -0.054866  -0.008550
     2  C    0.000005   0.000016  -0.000181   0.004346   0.000929   0.000650
     3  C    0.000002   0.000000  -0.000008   0.007578  -0.000116  -0.000042
     4  C   -0.000001   0.000000   0.000000  -0.000183  -0.000450   0.000386
     5  C   -0.000001   0.000000   0.000003  -0.004134  -0.001481  -0.000145
     6  N    0.000036  -0.000004   0.000041  -0.016664  -0.021938   0.006863
     7  H    0.000000   0.000000   0.000000   0.000038   0.000029  -0.000001
     8  C    0.008155  -0.001105   0.025758   0.067961  -0.086928   0.006510
     9  C   -0.032831   0.005280  -0.006125   0.112527   0.184642  -0.112066
    10  C    0.419187  -0.030053   0.012189  -0.153424  -0.109511  -0.014061
    11  C    0.005274  -0.025441   0.429846   0.384634  -0.004078  -0.000608
    12  C   -0.028612   0.412706  -0.039392   0.039765   0.008193   0.000818
    13  H    0.482166  -0.002457  -0.000220  -0.000733  -0.001451   0.001529
    14  H   -0.002457   0.486100  -0.005252   0.006163  -0.000970   0.000003
    15  H   -0.000220  -0.005252   0.500266  -0.068091   0.000071   0.000001
    16  C   -0.000733   0.006163  -0.068091   5.171313   0.015377   0.002044
    17  C   -0.001451  -0.000970   0.000071   0.015377   5.311137   0.469357
    18  C    0.001529   0.000003   0.000001   0.002044   0.469357   5.093369
    19  C    0.000690   0.000018  -0.000007  -0.002074   0.415363  -0.042374
    20  C    0.000327  -0.000003   0.000000  -0.000049  -0.060763   0.493400
    21  H   -0.001471   0.000046  -0.000002   0.000168  -0.033515   0.423853
    22  C   -0.000255   0.000000   0.000000   0.000266  -0.053275  -0.019944
    23  H    0.000018   0.000003  -0.000002   0.001516  -0.030744   0.006411
    24  C   -0.000030   0.000000   0.000000  -0.000030  -0.033696  -0.070126
    25  H    0.000041   0.000000   0.000000   0.000001   0.006021  -0.031881
    26  H    0.000003   0.000000   0.000000   0.000003   0.005366  -0.000150
    27  H   -0.000001   0.000000   0.000000   0.000000  -0.000613   0.005640
    28  F    0.000002  -0.000143   0.005950   0.322480   0.000028   0.000002
    29  C    0.000000   0.000000   0.000000   0.000151  -0.000014  -0.000001
    30  H    0.000000   0.000000   0.000000   0.000026  -0.000003   0.000000
    31  H    0.000000   0.000000   0.000000   0.000002   0.000005   0.000000
    32  H    0.000000   0.000000   0.000000   0.000004   0.000000   0.000000
    33  C    0.000000   0.000000   0.000000  -0.000032  -0.000142   0.000013
    34  C   -0.000002   0.000000   0.000000  -0.000050   0.000862   0.004235
    35  C    0.000000   0.000000   0.000000   0.000000  -0.000063  -0.000051
    36  H    0.000000   0.000000   0.000000  -0.000002  -0.000019   0.000000
    37  H    0.000000   0.000000   0.000000   0.000008   0.000023  -0.000002
    38  C    0.000001   0.000000   0.000000  -0.000006  -0.000240  -0.001368
    39  H    0.000026   0.000000   0.000000  -0.000282  -0.008523  -0.009665
    40  H   -0.000001   0.000000   0.000000   0.000127   0.000483   0.000369
    41  H    0.000000   0.000000   0.000000   0.000000   0.000004  -0.000020
    42  H    0.000000   0.000000   0.000000   0.000000   0.000000   0.000001
    43  H    0.000000   0.000000   0.000000   0.000001  -0.000508  -0.000775
    44  H    0.000000   0.000000   0.000000   0.000001   0.000063   0.000568
    45  N    0.000000   0.000000   0.000000  -0.000177   0.001131  -0.000199
    46  O    0.000000   0.000000   0.000000   0.000000  -0.000016   0.000070
    47  H   -0.000001  -0.000002   0.000079  -0.012890   0.000245  -0.000030
              19         20         21         22         23         24
     1  C    0.008817  -0.000788   0.000009   0.002384  -0.002252   0.000168
     2  C   -0.006973   0.000003  -0.000007   0.000336   0.002239  -0.000014
     3  C   -0.001228  -0.000024   0.000001   0.000707   0.000705   0.000005
     4  C    0.000408   0.000012  -0.000004  -0.001504   0.000156   0.000030
     5  C   -0.001597   0.000657  -0.000021  -0.000409  -0.001358  -0.000154
     6  N   -0.005316   0.000180  -0.000232  -0.001903  -0.004706   0.000949
     7  H    0.000048   0.000001   0.000000   0.000002  -0.000001  -0.000008
     8  C   -0.014767  -0.001236   0.000416   0.002679   0.006641  -0.000333
     9  C   -0.083733  -0.000543  -0.001730  -0.002622  -0.006513  -0.002138
    10  C    0.002678   0.000042   0.001029  -0.001501  -0.000125   0.000344
    11  C    0.000245   0.000020  -0.000165  -0.000030  -0.000184   0.000003
    12  C   -0.000917  -0.000025   0.000269   0.000112   0.000034  -0.000016
    13  H    0.000690   0.000327  -0.001471  -0.000255   0.000018  -0.000030
    14  H    0.000018  -0.000003   0.000046   0.000000   0.000003   0.000000
    15  H   -0.000007   0.000000  -0.000002   0.000000  -0.000002   0.000000
    16  C   -0.002074  -0.000049   0.000168   0.000266   0.001516  -0.000030
    17  C    0.415363  -0.060763  -0.033515  -0.053275  -0.030744  -0.033696
    18  C   -0.042374   0.493400   0.423853  -0.019944   0.006411  -0.070126
    19  C    5.109225  -0.021499   0.007632   0.474649   0.415527  -0.051882
    20  C   -0.021499   4.967332  -0.030037  -0.066614  -0.000754   0.499855
    21  H    0.007632  -0.030037   0.488068  -0.001275  -0.000288   0.006168
    22  C    0.474649  -0.066614  -0.001275   4.971793  -0.024554   0.481666
    23  H    0.415527  -0.000754  -0.000288  -0.024554   0.486022   0.005613
    24  C   -0.051882   0.499855   0.006168   0.481666   0.005613   4.969019
    25  H   -0.000672   0.419493  -0.003651   0.005693   0.000066  -0.029967
    26  H   -0.029705   0.005233   0.000070   0.416423  -0.003386  -0.029920
    27  H    0.005270  -0.030527  -0.000289  -0.029966  -0.000287   0.417425
    28  F   -0.000001   0.000000   0.000001   0.000001   0.000016   0.000000
    29  C    0.000037   0.000000   0.000000  -0.000005  -0.000065   0.000000
    30  H    0.000001   0.000000   0.000000   0.000000   0.000004   0.000000
    31  H    0.000008   0.000000   0.000000   0.000000  -0.000011   0.000000
    32  H    0.000002   0.000000   0.000000   0.000000  -0.000001   0.000000
    33  C    0.000269   0.000029   0.000001  -0.000343  -0.000012   0.000061
[...]
     6  N   -0.000009   0.000017   0.000006  -0.002722  -0.001612   0.000128
     7  H    0.000000   0.000001   0.000000   0.000002  -0.010126   0.000237
     8  C    0.000031  -0.000059  -0.000005  -0.122475  -0.001474  -0.000210
     9  C   -0.000523  -0.000432   0.000049   0.013876   0.000062  -0.000007
    10  C   -0.000037   0.000013  -0.000001  -0.004415  -0.000004   0.000000
    11  C    0.000000   0.000000   0.000000  -0.064227   0.000000   0.000001
    12  C   -0.000001   0.000000   0.000000   0.011126   0.000001   0.000000
    13  H    0.000041   0.000003  -0.000001   0.000002   0.000000   0.000000
    14  H    0.000000   0.000000   0.000000  -0.000143   0.000000   0.000000
    15  H    0.000000   0.000000   0.000000   0.005950   0.000000   0.000000
    16  C    0.000001   0.000003   0.000000   0.322480   0.000151   0.000026
    17  C    0.006021   0.005366  -0.000613   0.000028  -0.000014  -0.000003
    18  C   -0.031881  -0.000150   0.005640   0.000002  -0.000001   0.000000
    19  C   -0.000672  -0.029705   0.005270  -0.000001   0.000037   0.000001
    20  C    0.419493   0.005233  -0.030527   0.000000   0.000000   0.000000
    21  H   -0.003651   0.000070  -0.000289   0.000001   0.000000   0.000000
    22  C    0.005693   0.416423  -0.029966   0.000001  -0.000005   0.000000
    23  H    0.000066  -0.003386  -0.000287   0.000016  -0.000065   0.000004
    24  C   -0.029967  -0.029920   0.417425   0.000000   0.000000   0.000000
    25  H    0.491515  -0.000319  -0.003579   0.000000   0.000000   0.000000
    26  H   -0.000319   0.492842  -0.003371   0.000000   0.000001   0.000000
    27  H   -0.003579  -0.003371   0.490446   0.000000   0.000000   0.000000
    28  F    0.000000   0.000000   0.000000   9.063902  -0.000488   0.000061
    29  C    0.000000   0.000001   0.000000  -0.000488   4.846776   0.407557
    30  H    0.000000   0.000000   0.000000   0.000061   0.407557   0.577177
    31  H    0.000000   0.000000   0.000000   0.000013   0.409230  -0.025094
    32  H    0.000000   0.000000   0.000000   0.000001   0.421947  -0.021806
    33  C    0.000000   0.000002  -0.000003   0.000000  -0.000152   0.000003
    34  C    0.000116  -0.000070  -0.000108  -0.000001   0.000032  -0.000001
    35  C    0.000001  -0.000006  -0.000003   0.000000  -0.000006   0.000000
    36  H    0.000000   0.000001   0.000000   0.000000  -0.000011   0.000006
    37  H    0.000000   0.000000   0.000000   0.000000   0.000026  -0.000003
    38  C    0.000002   0.000026   0.000015   0.000000   0.000003   0.000000
    39  H    0.000012   0.000011  -0.000047   0.000000   0.000008   0.000000
    40  H   -0.000005   0.000001   0.000005   0.000000   0.000003   0.000000
    41  H    0.000000   0.000009   0.000005   0.000000   0.000003   0.000000
    42  H    0.000000   0.000000   0.000000   0.000000   0.000000   0.000000
    43  H   -0.000004  -0.000008   0.000222   0.000000   0.000000   0.000000
    44  H    0.000179   0.000004  -0.000005   0.000000   0.000000   0.000000
    45  N    0.000004   0.000066   0.000017  -0.000002  -0.000441   0.000021
    46  O   -0.000003   0.000000   0.000000   0.000000   0.000000   0.000000
    47  H    0.000000   0.000000   0.000000   0.010156  -0.004968   0.001490
              31         32         33         34         35         36
     1  C   -0.000461  -0.000217  -0.002856  -0.007278  -0.000411  -0.000922
     2  C   -0.005195   0.009937   0.001055   0.001086   0.000149   0.000705
     3  C   -0.043785  -0.049224   0.002052  -0.001337  -0.000335   0.001568
     4  C    0.003520  -0.008191  -0.018025   0.013534  -0.000998   0.000891
     5  C   -0.000510   0.000144  -0.056628  -0.071789  -0.009745  -0.030894
     6  N    0.000191   0.000117   0.004478  -0.021521  -0.000816  -0.000048
     7  H    0.000394   0.003783  -0.006351  -0.000029  -0.000077  -0.003406
     8  C   -0.000125   0.000055  -0.000341   0.000148  -0.000038  -0.000058
     9  C   -0.000007  -0.000001   0.000113  -0.001150   0.000007   0.000011
    10  C    0.000001   0.000000   0.000003  -0.000013   0.000000   0.000000
    11  C    0.000002   0.000000   0.000000  -0.000007   0.000000   0.000000
    12  C    0.000000   0.000000   0.000000   0.000008   0.000000   0.000000
    13  H    0.000000   0.000000   0.000000  -0.000002   0.000000   0.000000
    14  H    0.000000   0.000000   0.000000   0.000000   0.000000   0.000000
    15  H    0.000000   0.000000   0.000000   0.000000   0.000000   0.000000
    16  C    0.000002   0.000004  -0.000032  -0.000050   0.000000  -0.000002
    17  C    0.000005   0.000000  -0.000142   0.000862  -0.000063  -0.000019
    18  C    0.000000   0.000000   0.000013   0.004235  -0.000051   0.000000
    19  C    0.000008   0.000002   0.000269   0.002783   0.000086   0.000029
    20  C    0.000000   0.000000   0.000029   0.003403   0.000041  -0.000001
    21  H    0.000000   0.000000   0.000001   0.000388   0.000000   0.000000
    22  C    0.000000   0.000000  -0.000343  -0.005006  -0.000090  -0.000017
    23  H   -0.000011  -0.000001  -0.000012  -0.000105  -0.000005  -0.000003
    24  C    0.000000   0.000000   0.000061  -0.001514   0.000149   0.000003
    25  H    0.000000   0.000000   0.000000   0.000116   0.000001   0.000000
    26  H    0.000000   0.000000   0.000002  -0.000070  -0.000006   0.000001
    27  H    0.000000   0.000000  -0.000003  -0.000108  -0.000003   0.000000
    28  F    0.000013   0.000001   0.000000  -0.000001   0.000000   0.000000
    29  C    0.409230   0.421947  -0.000152   0.000032  -0.000006  -0.000011
    30  H   -0.025094  -0.021806   0.000003  -0.000001   0.000000   0.000006
    31  H    0.579071  -0.022813   0.000000  -0.000002   0.000000  -0.000016
    32  H   -0.022813   0.580561  -0.000041   0.000001   0.000006   0.000122
    33  C    0.000000  -0.000041   4.979665   0.005678   0.292047   0.394431
    34  C   -0.000002   0.000001   0.005678   5.091165  -0.001101   0.007292
    35  C    0.000000   0.000006   0.292047  -0.001101   4.743298  -0.003194
    36  H   -0.000016   0.000122   0.394431   0.007292  -0.003194   0.599059
    37  H    0.000002  -0.000003   0.379462  -0.023855  -0.055562  -0.031080
    38  C    0.000000   0.000000  -0.008659   0.242944  -0.046749   0.001731
    39  H    0.000000   0.000000   0.004630   0.377981   0.002684   0.000389
    40  H    0.000000   0.000000  -0.016693   0.363576  -0.003448  -0.000538
    41  H    0.000000   0.000000  -0.095662  -0.017678   0.428647   0.001160
    42  H    0.000000   0.000000  -0.031289  -0.001995   0.396000  -0.003773
    43  H    0.000000   0.000000  -0.010792  -0.114553  -0.010260   0.000621
    44  H    0.000000   0.000000  -0.001540  -0.034399   0.006702   0.000020
    45  N    0.000010  -0.000009   0.301479   0.250241  -0.070564  -0.024403
    46  O    0.000000   0.000000  -0.076007  -0.066227   0.312069   0.004891
    47  H    0.001838  -0.000024   0.000010   0.000003   0.000001   0.000005
              37         38         39         40         41         42
     1  C    0.001058   0.000150  -0.000545   0.002916   0.000041   0.000011
     2  C   -0.000612   0.000084   0.000696  -0.000450  -0.000021  -0.000004
     3  C    0.000089   0.000123  -0.000247   0.000293  -0.000065   0.000018
     4  C   -0.001233  -0.000196  -0.000553  -0.001303  -0.001375   0.000008
     5  C    0.018727  -0.003621  -0.029260   0.008822   0.000826   0.000268
     6  N    0.001660   0.005499   0.007295   0.008742   0.000066   0.000029
     7  H    0.000301  -0.000492  -0.000158  -0.000059  -0.000511   0.000196
     8  C    0.000061  -0.000371  -0.002701   0.000832  -0.000002   0.000001
     9  C   -0.000019   0.000452   0.001811  -0.000441   0.000001   0.000000
    10  C    0.000000   0.000006   0.000370  -0.000052   0.000000   0.000000
    11  C    0.000000   0.000000   0.000020  -0.000004   0.000000   0.000000
    12  C    0.000000   0.000000  -0.000027   0.000003   0.000000   0.000000
    13  H    0.000000   0.000001   0.000026  -0.000001   0.000000   0.000000
    14  H    0.000000   0.000000   0.000000   0.000000   0.000000   0.000000
    15  H    0.000000   0.000000   0.000000   0.000000   0.000000   0.000000
    16  C    0.000008  -0.000006  -0.000282   0.000127   0.000000   0.000000
    17  C    0.000023  -0.000240  -0.008523   0.000483   0.000004   0.000000
    18  C   -0.000002  -0.001368  -0.009665   0.000369  -0.000020   0.000001
    19  C   -0.000039   0.000569   0.003129  -0.000546  -0.000074  -0.000001
    20  C    0.000000  -0.002926  -0.003422  -0.000099  -0.000022  -0.000001
    21  H    0.000000  -0.000041  -0.000320   0.000001   0.000000   0.000000
    22  C    0.000039  -0.001381   0.000882   0.000463   0.000296   0.000006
    23  H    0.000002   0.000007  -0.000011   0.000019   0.000004   0.000000
    24  C   -0.000013  -0.001028   0.000951  -0.000208  -0.000075  -0.000003
    25  H    0.000000   0.000002   0.000012  -0.000005   0.000000   0.000000
    26  H    0.000000   0.000026   0.000011   0.000001   0.000009   0.000000
    27  H    0.000000   0.000015  -0.000047   0.000005   0.000005   0.000000
    28  F    0.000000   0.000000   0.000000   0.000000   0.000000   0.000000
    29  C    0.000026   0.000003   0.000008   0.000003   0.000003   0.000000
    30  H   -0.000003   0.000000   0.000000   0.000000   0.000000   0.000000
    31  H    0.000002   0.000000   0.000000   0.000000   0.000000   0.000000
    32  H   -0.000003   0.000000   0.000000   0.000000   0.000000   0.000000
    33  C    0.379462  -0.008659   0.004630  -0.016693  -0.095662  -0.031289
    34  C   -0.023855   0.242944   0.377981   0.363576  -0.017678  -0.001995
    35  C   -0.055562  -0.046749   0.002684  -0.003448   0.428647   0.396000
    36  H   -0.031080   0.001731   0.000389  -0.000538   0.001160  -0.003773
    37  H    0.653872   0.002597   0.000075   0.016424   0.013625  -0.001493
    38  C    0.002597   4.752088  -0.000449  -0.034979   0.001260   0.005484
    39  H    0.000075  -0.000449   0.588257  -0.024582   0.001545  -0.000023
    40  H    0.016424  -0.034979  -0.024582   0.641313   0.001894   0.000417
    41  H    0.013625   0.001260   0.001545   0.001894   0.666282  -0.030355
    42  H   -0.001493   0.005484  -0.000023   0.000417  -0.030355   0.598373
    43  H    0.001651   0.457842   0.007900   0.011369   0.018902   0.000543
    44  H    0.000377   0.397617  -0.005037  -0.001342   0.000352  -0.000155
    45  N   -0.048815  -0.045939  -0.020075  -0.043607   0.009515   0.007805
    46  O    0.006226   0.292067   0.004607   0.005522  -0.056247  -0.033320
    47  H   -0.000003  -0.000001   0.000002  -0.000005   0.000000   0.000000
              43         44         45         46         47
     1  C    0.000184   0.000030  -0.007031   0.000003  -0.024581
     2  C   -0.000010  -0.000001   0.005644   0.000001   0.412928
     3  C    0.000008  -0.000003  -0.002473   0.000002  -0.051004
     4  C   -0.001008   0.000084  -0.068387   0.000350   0.009930
     5  C   -0.000836  -0.000037   0.429360  -0.005006   0.000150
     6  N    0.000129   0.000089  -0.099304   0.000046   0.008541
     7  H   -0.000044   0.000004   0.001023   0.000046  -0.000008
     8  C    0.000011   0.000028  -0.002699   0.000002   0.002005
     9  C   -0.000008  -0.000038   0.000042  -0.000002   0.001075
    10  C   -0.000001  -0.000002   0.000026   0.000000   0.000566
    11  C    0.000000   0.000000   0.000005   0.000000  -0.000316
    12  C    0.000000   0.000000  -0.000002   0.000000  -0.000279
    13  H    0.000000   0.000000   0.000000   0.000000  -0.000001
    14  H    0.000000   0.000000   0.000000   0.000000  -0.000002
    15  H    0.000000   0.000000   0.000000   0.000000   0.000079
    16  C    0.000001   0.000001  -0.000177   0.000000  -0.012890
    17  C   -0.000508   0.000063   0.001131  -0.000016   0.000245
    18  C   -0.000775   0.000568  -0.000199   0.000070  -0.000030
    19  C   -0.000284  -0.000200  -0.002350   0.000009   0.000392
    20  C   -0.000563   0.000844   0.000060  -0.000048   0.000002
    21  H    0.000004   0.000006   0.000005   0.000001  -0.000001
    22  C    0.001960   0.000431   0.004783   0.000004  -0.000021
    23  H    0.000016   0.000001   0.000139   0.000000  -0.000012
    24  C    0.002849  -0.000862  -0.001582  -0.000028   0.000000
    25  H   -0.000004   0.000179   0.000004  -0.000003   0.000000
    26  H   -0.000008   0.000004   0.000066   0.000000   0.000000
    27  H    0.000222  -0.000005   0.000017   0.000000   0.000000
    28  F    0.000000   0.000000  -0.000002   0.000000   0.010156
    29  C    0.000000   0.000000  -0.000441   0.000000  -0.004968
    30  H    0.000000   0.000000   0.000021   0.000000   0.001490
    31  H    0.000000   0.000000   0.000010   0.000000   0.001838
    32  H    0.000000   0.000000  -0.000009   0.000000  -0.000024
    33  C   -0.010792  -0.001540   0.301479  -0.076007   0.000010
    34  C   -0.114553  -0.034399   0.250241  -0.066227   0.000003
    35  C   -0.010260   0.006702  -0.070564   0.312069   0.000001
    36  H    0.000621   0.000020  -0.024403   0.004891   0.000005
    37  H    0.001651   0.000377  -0.048815   0.006226  -0.000003
    38  C    0.457842   0.397617  -0.045939   0.292067  -0.000001
    39  H    0.007900  -0.005037  -0.020075   0.004607   0.000002
    40  H    0.011369  -0.001342  -0.043607   0.005522  -0.000005
    41  H    0.018902   0.000352   0.009515  -0.056247   0.000000
    42  H    0.000543  -0.000155   0.007805  -0.033320   0.000000
    43  H    0.633750  -0.025563   0.009850  -0.051074   0.000000
    44  H   -0.025563   0.593018   0.007063  -0.031118   0.000000
    45  N    0.009850   0.007063   6.524234   0.000819   0.000149
    46  O   -0.051074  -0.031118   0.000819   8.034175   0.000000
    47  H    0.000000   0.000000   0.000149   0.000000   0.520533
 Mulliken charges:
               1
     1  C    0.141904
     2  C   -0.220734
     3  C    0.014974
     4  C   -0.179870
     5  C    0.169473
     6  N   -0.327749
     7  H    0.127599
     8  C   -0.121462
     9  C    0.146083
    10  C   -0.197761
    11  C   -0.222885
    12  C   -0.117934
    13  H    0.150647
    14  H    0.154975
    15  H    0.144554
    16  C    0.312112
    17  C    0.084594
    18  C   -0.204037
    19  C   -0.181644
    20  C   -0.170990
    21  H    0.144913
    22  C   -0.154858
    23  H    0.150217
    24  C   -0.161631
    25  H    0.147476
    26  H    0.147248
    27  H    0.149717
    28  F   -0.223835
    29  C   -0.268583
    30  H    0.105880
    31  H    0.103735
    32  H    0.085650
    33  C   -0.039914
    34  C    0.004315
    35  C    0.021635
    36  H    0.085449
    37  H    0.066427
    38  C   -0.012122
    39  H    0.102644
    40  H    0.064770
    41  H    0.057669
    42  H    0.093253
    43  H    0.068476
    44  H    0.092820
    45  N   -0.115432
    46  O   -0.341812
    47  H    0.124047
 Sum of Mulliken charges =   0.00000
 Mulliken charges with hydrogens summed into heavy atoms:
               1
     1  C    0.141904
     2  C   -0.096687
     3  C    0.014974
     4  C   -0.052271
     5  C    0.169473
     6  N   -0.327749
     8  C   -0.121462
     9  C    0.146083
    10  C   -0.047114
    11  C   -0.078331
    12  C    0.037040
    16  C    0.312112
    17  C    0.084594
    18  C   -0.059124
    19  C   -0.031427
    20  C   -0.023514
    22  C   -0.007611
    24  C   -0.011914
    28  F   -0.223835
    29  C    0.026682
    33  C    0.111962
    34  C    0.171729
    35  C    0.172556
    38  C    0.149174
    45  N   -0.115432
    46  O   -0.341812
 Electronic spatial extent (au):  <R**2>=          18452.6791
 Charge=              0.0000 electrons
 Dipole moment (field-independent basis, Debye):
    X=             -1.1855    Y=             -1.4861    Z=             -0.3123  Tot=              1.9265
 Quadrupole moment (field-independent basis, Debye-Ang):
   XX=           -140.9006   YY=           -139.2713   ZZ=           -154.4602
   XY=              8.1403   XZ=             -7.3912   YZ=             -5.6003
 Traceless Quadrupole moment (field-independent basis, Debye-Ang):
   XX=              3.9768   YY=              5.6061   ZZ=             -9.5829
   XY=              8.1403   XZ=             -7.3912   YZ=             -5.6003
 Octapole moment (field-independent basis, Debye-Ang**2):
  XXX=          -1189.0003  YYY=           1103.7358  ZZZ=           -220.7633  XYY=           -435.9599
  XXY=            395.4206  XXZ=            -77.9736  XZZ=           -476.6161  YZZ=            430.0447
  YYZ=            -51.2359  XYZ=              0.7691
 Hexadecapole moment (field-independent basis, Debye-Ang**3):
 XXXX=         -10519.1792 YYYY=          -8947.8173 ZZZZ=          -5060.5189 XXXY=           3406.6628
 XXXZ=           -140.0981 YYYX=           3459.1651 YYYZ=           1699.5517 ZZZX=           -504.7049
 ZZZY=           1944.4344 XXYY=          -3413.7731 XXZZ=          -2820.3485 YYZZ=          -2491.6417
 XXYZ=            486.4522 YYXZ=           -157.1460 ZZXY=           1533.7008
 N-N= 2.319914485174D+03 E-N=-7.287072753596D+03  KE= 1.130005326453D+03
 No NMR shielding tensors so no spin-rotation constants.
 Leave Link  601 at Tue Jun 11 18:07:15 2024, MaxMem=  8589934592 cpu:              12.7 elap:               0.5
 (Enter /opt/packages/gaussian/g16RevC.01/g16/l9999.exe)
 Unable to Open any file for archive entry.
 1\1\GINC-R388\SP\RB3LYP\def2TZVPP\C22H21F1N2O1\BIM2\11-Jun-2024\0\\#p 
 b3lyp def2tzvpp scf=maxcycle=128 nosymm scrf=(smd,solvent=propylethano
 ate) empiricaldispersion=gd3bj\\Title Card Required\\0,1\C,0,1.829735,
 -1.635803,-0.35607\C,0,0.498171,-1.755974,-0.740889\C,0,-0.378727,-2.4
 57038,0.104786\C,0,0.12496,-3.020047,1.267805\C,0,1.505215,-2.876383,1
 .567036\N,0,2.305701,-2.163369,0.774553\H,0,-0.544905,-3.578848,1.9185
 52\C,0,2.822576,-0.909014,-1.205606\C,0,4.127329,-1.400467,-1.444927\C
 ,0,5.030902,-0.628958,-2.187789\C,0,3.389019,1.109241,-2.483473\C,0,4.
 669623,0.613243,-2.703948\H,0,6.028951,-1.026755,-2.378466\H,0,5.38676
 ,1.195146,-3.284604\H,0,3.062854,2.078936,-2.860687\C,0,2.501067,0.341
 063,-1.744079\C,0,4.58132,-2.732317,-0.950567\C,0,5.788773,-2.841796,-
 0.249965\C,0,3.834196,-3.893557,-1.193346\C,0,6.228819,-4.080022,0.221
 239\H,0,6.376149,-1.943086,-0.049521\C,0,4.273161,-5.128911,-0.725175\
 H,0,2.895451,-3.822246,-1.747454\C,0,5.470797,-5.226494,-0.011591\H,0,
 7.166292,-4.145515,0.776712\H,0,3.678464,-6.023128,-0.920413\H,0,5.811
 769,-6.195333,0.357942\F,0,1.283488,0.852516,-1.517023\C,0,-1.830102,-
 2.592626,-0.262638\H,0,-2.300679,-1.601151,-0.34011\H,0,-1.9364,-3.078
 92,-1.24364\H,0,-2.38171,-3.182437,0.480575\C,0,1.327548,-3.93094,3.80
 5155\C,0,3.497458,-3.232518,2.945837\C,0,2.041434,-5.085492,4.49316\H,
 0,0.33262,-4.275656,3.50357\H,0,1.199311,-3.098715,4.52466\C,0,4.09782
 1,-4.424645,3.669009\H,0,4.033951,-3.058245,2.006446\H,0,3.602492,-2.3
 25345,3.572697\H,0,2.027759,-5.967625,3.823273\H,0,1.519114,-5.345947,
 5.423735\H,0,4.125007,-5.291513,2.979845\H,0,5.125766,-4.195801,3.9817
 62\N,0,2.093908,-3.487418,2.653172\O,0,3.364945,-4.754226,4.825759\H,0
 ,0.14054,-1.31206,-1.669936\\Version=ES64L-G16RevC.01\HF=-1136.1193412
 \RMSD=8.054e-09\Dipole=-0.4664024,-0.584696,-0.1228711\Quadrupole=2.95
 66296,4.1679978,-7.1246274,6.0521114,-5.4951912,-4.1636519\PG=C01 [X(C
 22H21F1N2O1)]\\@
 The archive entry for this job was punched.


      THE ONE-EYED VIEW OF OUR UNIVERSE SAYS YOU MUST NOT LOOK
      FAR AFIELD FOR PROBLEMS.  SUCH PROBLEMS MAY NEVER ARRIVE. 
      INSTEAD, TEND TO THE WOLF WITHIN YOUR FENCES.
      THE PACKS RANGING OUTSIDE MAY NOT EVEN EXIST.

                              -- THE AZHAR BOOK SHAMRA I:4
                                 CHILDREN OF DUNE, BY FRANK HERBERT
 Job cpu time:       0 days  4 hours 34 minutes  5.9 seconds.
 Elapsed time:       0 days  0 hours  8 minutes 38.5 seconds.
 File lengths (MBytes):  RWF=    826 Int=      0 D2E=      0 Chk=     72 Scr=      1
 Normal termination of Gaussian 16 at Tue Jun 11 18:07:15 2024.
