 Entering Gaussian System, Link 0=g16
 Initial command:
 /ihome/crc/install/gaussian/c01/avx2/tar/g16/l1.exe "/scratch/slurm-18023900/Gau-7008.inp" -scrdir="/scratch/slurm-18023900/"
 Entering Link 1 = /ihome/crc/install/gaussian/c01/avx2/tar/g16/l1.exe PID=      7009.
  
 Copyright (c) 1988-2019, Gaussian, Inc.  All Rights Reserved.
  
 This is part of the Gaussian(R) 16 program.  It is based on
 the Gaussian(R) 09 system (copyright 2009, Gaussian, Inc.),
 the Gaussian(R) 03 system (copyright 2003, Gaussian, Inc.),
 the Gaussian(R) 98 system (copyright 1998, Gaussian, Inc.),
 the Gaussian(R) 94 system (copyright 1995, Gaussian, Inc.),
 the Gaussian 92(TM) system (copyright 1992, Gaussian, Inc.),
 the Gaussian 90(TM) system (copyright 1990, Gaussian, Inc.),
 the Gaussian 88(TM) system (copyright 1988, Gaussian, Inc.),
 the Gaussian 86(TM) system (copyright 1986, Carnegie Mellon
 University), and the Gaussian 82(TM) system (copyright 1983,
 Carnegie Mellon University). Gaussian is a federally registered
 trademark of Gaussian, Inc.
  
 This software contains proprietary and confidential information,
 including trade secrets, belonging to Gaussian, Inc.
  
 This software is provided under written license and may be
 used, copied, transmitted, or stored only in accord with that
 written license.
  
 The following legend is applicable only to US Government
 contracts under FAR:
  
                    RESTRICTED RIGHTS LEGEND
  
 Use, reproduction and disclosure by the US Government is
 subject to restrictions as set forth in subparagraphs (a)
 and (c) of the Commercial Computer Software - Restricted
 Rights clause in FAR 52.227-19.
  
 Gaussian, Inc.
 340 Quinnipiac St., Bldg. 40, Wallingford CT 06492
  
  
 ---------------------------------------------------------------
 Warning -- This program may not be used in any manner that
 competes with the business of Gaussian, Inc. or will provide
 assistance to any competitor of Gaussian, Inc.  The licensee
 of this program is prohibited from giving any competitor of
 Gaussian, Inc. access to this program.  By using this program,
 the user acknowledges that Gaussian, Inc. is engaged in the
 business of creating and licensing software in the field of
 computational chemistry and represents and warrants to the
 licensee that it is not a competitor of Gaussian, Inc. and that
 it will not use this program in any manner prohibited above.
 ---------------------------------------------------------------
  

 Cite this work as:
 Gaussian 16, Revision C.01,
 M. J. Frisch, G. W. Trucks, H. B. Schlegel, G. E. Scuseria, 
 M. A. Robb, J. R. Cheeseman, G. Scalmani, V. Barone, 
 G. A. Petersson, H. Nakatsuji, X. Li, M. Caricato, A. V. Marenich, 
 J. Bloino, B. G. Janesko, R. Gomperts, B. Mennucci, H. P. Hratchian, 
 J. V. Ortiz, A. F. Izmaylov, J. L. Sonnenberg, D. Williams-Young, 
 F. Ding, F. Lipparini, F. Egidi, J. Goings, B. Peng, A. Petrone, 
 T. Henderson, D. Ranasinghe, V. G. Zakrzewski, J. Gao, N. Rega, 
 G. Zheng, W. Liang, M. Hada, M. Ehara, K. Toyota, R. Fukuda, 
 J. Hasegawa, M. Ishida, T. Nakajima, Y. Honda, O. Kitao, H. Nakai, 
 T. Vreven, K. Throssell, J. A. Montgomery, Jr., J. E. Peralta, 
 F. Ogliaro, M. J. Bearpark, J. J. Heyd, E. N. Brothers, K. N. Kudin, 
 V. N. Staroverov, T. A. Keith, R. Kobayashi, J. Normand, 
 K. Raghavachari, A. P. Rendell, J. C. Burant, S. S. Iyengar, 
 J. Tomasi, M. Cossi, J. M. Millam, M. Klene, C. Adamo, R. Cammi, 
 J. W. Ochterski, R. L. Martin, K. Morokuma, O. Farkas, 
 J. B. Foresman, and D. J. Fox, Gaussian, Inc., Wallingford CT, 2019.
 
 ******************************************
 Gaussian 16:  ES64L-G16RevC.01  3-Jul-2019
                 5-Feb-2025 
 ******************************************
 %nprocshared=32
 Will use up to   32 processors via shared memory.
 %mem=48GB
 ----------------------------------------------------------------------
 #p b3lyp def2tzvpp scf=maxcycle=128 nosymm scrf=(smd,solvent=propyleth
 anoate) empiricaldispersion=gd3bj
 ----------------------------------------------------------------------
 1/38=1,172=1/1;
 2/12=2,15=1,17=6,18=5,40=1/2;
 3/5=44,7=202,11=2,25=1,30=1,70=32201,72=169,74=-5,124=41/1,2,3;
 4//1;
 5/5=2,7=128,38=5,53=169/2;
 6/7=2,8=2,9=2,10=2,28=1/1;
 99/5=1,9=1/99;
 Leave Link    1 at Wed Feb  5 12:04:55 2025, MaxMem=  6442450944 cpu:               0.6 elap:               0.0
 (Enter /ihome/crc/install/gaussian/c01/avx2/tar/g16/l101.exe)
 -------------------------
 alkyneCF3_S-ax-R_00_pre_3
 -------------------------
 Symbolic Z-matrix:
 Charge =  0 Multiplicity = 1
 C                    -0.70954  -2.99462  -0.9742 
 C                    -1.56617  -3.66916  -1.82971 
 C                    -2.94578  -3.62033  -1.56485 
 C                    -3.39134  -2.89214  -0.46941 
 C                    -2.4553   -2.2074    0.34292 
 N                    -1.14643  -2.28032   0.07152 
 H                    -4.45537  -2.86829  -0.24105 
 C                     0.77214  -2.98462  -1.15337 
 C                     1.65048  -3.36955  -0.11799 
 C                     3.02736  -3.17625  -0.28507 
 C                     2.68197  -2.22794  -2.48043 
 C                     3.53776  -2.60742  -1.44983 
 H                     3.7069   -3.48546   0.51126 
 H                     4.6123   -2.45333  -1.55798 
 H                     3.04394  -1.76392  -3.39831 
 C                     1.32046  -2.43279  -2.31206 
 C                     1.14196  -3.9798    1.14314 
 C                     1.60134  -3.5178    2.38388 
 C                     0.21134  -5.02917   1.11676 
 C                     1.12888  -4.08106   3.5698 
 H                     2.30469  -2.68488   2.41231 
 C                    -0.25763  -5.59238   2.30111 
 H                    -0.14452  -5.4088    0.15681 
 C                     0.19692  -5.11757   3.53318 
 H                     1.48683  -3.70003   4.52805 
 H                    -0.98018  -6.40958   2.26181 
 H                    -0.17453  -5.55602   4.46111 
 F                     0.49269  -2.03679  -3.28608 
 C                    -3.90642  -4.37368  -2.43976 
 H                    -4.94937  -4.17921  -2.15843 
 H                    -3.76418  -4.09687  -3.49483 
 H                    -3.72036  -5.45595  -2.3631 
 C                    -1.92491  -1.31462   2.56198 
 C                    -4.23294  -1.33809   1.78405 
 C                    -2.26132  -0.06766   3.35592 
 H                    -0.88536  -1.27385   2.22436 
 H                    -2.03237  -2.2033    3.21456 
 C                    -4.46314  -0.11583   2.66293 
 H                    -4.84583  -1.22064   0.88127 
 H                    -4.5633   -2.25274   2.31537 
 H                    -2.067     0.82686   2.73449 
 H                    -1.63043  -0.01021   4.25251 
 H                    -4.317     0.79478   2.0509 
 H                    -5.49635  -0.12042   3.03476 
 N                    -2.82864  -1.43714   1.41903 
 O                    -3.60661  -0.09162   3.77461 
 H                    -0.1788   -0.94451   0.18031 
 C                     1.53132   6.33209  -1.54037 
 C                     0.96816   5.26965  -0.87516 
 C                     1.76322   4.15388  -0.48818 
 C                     3.14461   4.15068  -0.83703 
 C                     3.70077   5.2682   -1.51928 
 C                     2.91218   6.33852  -1.85856 
 H                     0.90699   7.17799  -1.83159 
 H                    -0.09816   5.28052  -0.65054 
 C                     1.22334   3.02286   0.20856 
 C                     3.94167   3.02324  -0.53297 
 H                     4.76239   5.24873  -1.77208 
 H                     3.34206   7.19244  -2.38422 
 C                     3.42008   1.91547   0.1078 
 C                     2.04203   1.94443   0.49534 
 H                     4.99166   3.01781  -0.82986 
 C                    -0.24817   3.0215    0.51062 
 C                    -1.11984   2.17498  -0.15314 
 C                    -0.75104   3.92284   1.50353 
 C                    -2.53309   2.22073   0.08164 
 C                    -2.15509   3.97864   1.73585 
 C                     0.10445   4.74729   2.28534 
 C                    -3.01854   3.13346   1.00068 
 C                    -2.66818   4.87355   2.71538 
 C                    -0.41889   5.59504   3.23204 
 H                     1.18391   4.69639   2.1391 
 H                    -4.09523   3.19325   1.17089 
 C                    -1.81832   5.66629   3.44533 
 H                    -3.74697   4.90766   2.87786 
 H                     0.24953   6.21672   3.82946 
 H                    -2.21573   6.3479    4.19883 
 S                     1.27692   0.53025   1.23508 
 O                     0.43573   0.98424   2.29463 
 O                     2.21855  -0.49053   1.53463 
 S                    -0.39123   0.90338  -1.16495 
 O                     0.5741    1.50177  -2.01707 
 O                    -1.38279   0.05772  -1.72646 
 N                     0.36434  -0.02818  -0.0259 
 C                     4.30591   0.80684   0.31342 
 C                     5.14494  -0.06403   0.40776 
 C                    -3.48756   1.39465  -0.59559 
 C                    -4.36326   0.75038  -1.1346 
 C                    -5.32625  -0.04169  -1.83932 
 C                    -6.69759  -0.01947  -1.514 
 C                    -4.89176  -0.86364  -2.89158 
 C                    -7.60443  -0.80263  -2.2222 
 C                    -5.80619  -1.63596  -3.60267 
 H                    -3.82868  -0.8805   -3.13674 
 C                    -7.15983  -1.61118  -3.26819 
 H                    -8.66183  -0.77478  -1.95901 
 H                    -5.45785  -2.26182  -4.42554 
 H                    -7.87564  -2.21769  -3.82429 
 C                     6.10628  -1.12167   0.5098 
 C                     6.06437  -2.00481   1.59899 
 C                     7.09313  -1.31092  -0.48009 
 C                     6.98076  -3.04934   1.69551 
 H                     5.30353  -1.85915   2.3666 
 C                     8.00525  -2.35627  -0.37817 
 C                     7.95058  -3.22704   0.71064 
 H                     6.93484  -3.72876   2.54788 
 H                     8.75957  -2.49171  -1.15331 
 H                     8.66778  -4.04522   0.78559 
 C                     7.13202  -0.39199  -1.67443 
 F                     8.13988  -0.6872   -2.49666 
 F                     7.27908   0.88919  -1.32025 
 F                     6.00599  -0.46663  -2.39401 
 C                    -7.18041   0.86186  -0.39204 
 F                    -6.85556   2.14351  -0.583 
 F                    -6.64758   0.50532   0.78651 
 F                    -8.50446   0.80847  -0.2485 
 H                    -1.17185  -4.23468  -2.67482 
 
 ITRead=  0  0  0  0  0  0  0  0  0  0  0  0  0  0  0  0  0  0  0  0
 ITRead=  0  0  0  0  0  0  0  0  0  0  0  0  0  0  0  0  0  0  0  0
 ITRead=  0  0  0  0  0  0  0  0  0  0  0  0  0  0  0  0  0  0  0  0
 ITRead=  0  0  0  0  0  0  0  0  0  0  0  0  0  0  0  0  0  0  0  0
 ITRead=  0  0  0  0  0  0  0  0  0  0  0  0  0  0  0  0  0  0  0  0
 ITRead=  0  0  0  0  0  0  0  0  0  0  0  0  0  0  0  0  0
 MicOpt= -1 -1 -1 -1 -1 -1 -1 -1 -1 -1 -1 -1 -1 -1 -1 -1 -1 -1 -1 -1
 MicOpt= -1 -1 -1 -1 -1 -1 -1 -1 -1 -1 -1 -1 -1 -1 -1 -1 -1 -1 -1 -1
 MicOpt= -1 -1 -1 -1 -1 -1 -1 -1 -1 -1 -1 -1 -1 -1 -1 -1 -1 -1 -1 -1
 MicOpt= -1 -1 -1 -1 -1 -1 -1 -1 -1 -1 -1 -1 -1 -1 -1 -1 -1 -1 -1 -1
 MicOpt= -1 -1 -1 -1 -1 -1 -1 -1 -1 -1 -1 -1 -1 -1 -1 -1 -1 -1 -1 -1
 MicOpt= -1 -1 -1 -1 -1 -1 -1 -1 -1 -1 -1 -1 -1 -1 -1 -1 -1
 NAtoms=    117 NQM=      117 NQMF=       0 NMMI=      0 NMMIF=      0
                NMic=       0 NMicF=      0.
                    Isotopes and Nuclear Properties:
 (Nuclear quadrupole moments (NQMom) in fm**2, nuclear magnetic moments (NMagM)
  in nuclear magnetons)

  Atom         1           2           3           4           5           6           7           8           9          10
 IAtWgt=          12          12          12          12          12          14           1          12          12          12
 AtmWgt=  12.0000000  12.0000000  12.0000000  12.0000000  12.0000000  14.0030740   1.0078250  12.0000000  12.0000000  12.0000000
 NucSpn=           0           0           0           0           0           2           1           0           0           0
 AtZEff=  -0.0000000  -0.0000000  -0.0000000  -0.0000000  -0.0000000  -0.0000000  -0.0000000  -0.0000000  -0.0000000  -0.0000000
 NQMom=    0.0000000   0.0000000   0.0000000   0.0000000   0.0000000   2.0440000   0.0000000   0.0000000   0.0000000   0.0000000
 NMagM=    0.0000000   0.0000000   0.0000000   0.0000000   0.0000000   0.4037610   2.7928460   0.0000000   0.0000000   0.0000000
 AtZNuc=   6.0000000   6.0000000   6.0000000   6.0000000   6.0000000   7.0000000   1.0000000   6.0000000   6.0000000   6.0000000

  Atom        11          12          13          14          15          16          17          18          19          20
 IAtWgt=          12          12           1           1           1          12          12          12          12          12
 AtmWgt=  12.0000000  12.0000000   1.0078250   1.0078250   1.0078250  12.0000000  12.0000000  12.0000000  12.0000000  12.0000000
 NucSpn=           0           0           1           1           1           0           0           0           0           0
 AtZEff=  -0.0000000  -0.0000000  -0.0000000  -0.0000000  -0.0000000  -0.0000000  -0.0000000  -0.0000000  -0.0000000  -0.0000000
 NQMom=    0.0000000   0.0000000   0.0000000   0.0000000   0.0000000   0.0000000   0.0000000   0.0000000   0.0000000   0.0000000
 NMagM=    0.0000000   0.0000000   2.7928460   2.7928460   2.7928460   0.0000000   0.0000000   0.0000000   0.0000000   0.0000000
 AtZNuc=   6.0000000   6.0000000   1.0000000   1.0000000   1.0000000   6.0000000   6.0000000   6.0000000   6.0000000   6.0000000

  Atom        21          22          23          24          25          26          27          28          29          30
 IAtWgt=           1          12           1          12           1           1           1          19          12           1
 AtmWgt=   1.0078250  12.0000000   1.0078250  12.0000000   1.0078250   1.0078250   1.0078250  18.9984032  12.0000000   1.0078250
 NucSpn=           1           0           1           0           1           1           1           1           0           1
 AtZEff=  -0.0000000  -0.0000000  -0.0000000  -0.0000000  -0.0000000  -0.0000000  -0.0000000  -0.0000000  -0.0000000  -0.0000000
 NQMom=    0.0000000   0.0000000   0.0000000   0.0000000   0.0000000   0.0000000   0.0000000   0.0000000   0.0000000   0.0000000
 NMagM=    2.7928460   0.0000000   2.7928460   0.0000000   2.7928460   2.7928460   2.7928460   2.6288670   0.0000000   2.7928460
 AtZNuc=   1.0000000   6.0000000   1.0000000   6.0000000   1.0000000   1.0000000   1.0000000   9.0000000   6.0000000   1.0000000

  Atom        31          32          33          34          35          36          37          38          39          40
 IAtWgt=           1           1          12          12          12           1           1          12           1           1
 AtmWgt=   1.0078250   1.0078250  12.0000000  12.0000000  12.0000000   1.0078250   1.0078250  12.0000000   1.0078250   1.0078250
 NucSpn=           1           1           0           0           0           1           1           0           1           1
 AtZEff=  -0.0000000  -0.0000000  -0.0000000  -0.0000000  -0.0000000  -0.0000000  -0.0000000  -0.0000000  -0.0000000  -0.0000000
 NQMom=    0.0000000   0.0000000   0.0000000   0.0000000   0.0000000   0.0000000   0.0000000   0.0000000   0.0000000   0.0000000
 NMagM=    2.7928460   2.7928460   0.0000000   0.0000000   0.0000000   2.7928460   2.7928460   0.0000000   2.7928460   2.7928460
 AtZNuc=   1.0000000   1.0000000   6.0000000   6.0000000   6.0000000   1.0000000   1.0000000   6.0000000   1.0000000   1.0000000

  Atom        41          42          43          44          45          46          47          48          49          50
 IAtWgt=           1           1           1           1          14          16           1          12          12          12
 AtmWgt=   1.0078250   1.0078250   1.0078250   1.0078250  14.0030740  15.9949146   1.0078250  12.0000000  12.0000000  12.0000000
 NucSpn=           1           1           1           1           2           0           1           0           0           0
 AtZEff=  -0.0000000  -0.0000000  -0.0000000  -0.0000000  -0.0000000  -0.0000000  -0.0000000  -0.0000000  -0.0000000  -0.0000000
 NQMom=    0.0000000   0.0000000   0.0000000   0.0000000   2.0440000   0.0000000   0.0000000   0.0000000   0.0000000   0.0000000
 NMagM=    2.7928460   2.7928460   2.7928460   2.7928460   0.4037610   0.0000000   2.7928460   0.0000000   0.0000000   0.0000000
 AtZNuc=   1.0000000   1.0000000   1.0000000   1.0000000   7.0000000   8.0000000   1.0000000   6.0000000   6.0000000   6.0000000

  Atom        51          52          53          54          55          56          57          58          59          60
 IAtWgt=          12          12          12           1           1          12          12           1           1          12
 AtmWgt=  12.0000000  12.0000000  12.0000000   1.0078250   1.0078250  12.0000000  12.0000000   1.0078250   1.0078250  12.0000000
 NucSpn=           0           0           0           1           1           0           0           1           1           0
 AtZEff=  -0.0000000  -0.0000000  -0.0000000  -0.0000000  -0.0000000  -0.0000000  -0.0000000  -0.0000000  -0.0000000  -0.0000000
 NQMom=    0.0000000   0.0000000   0.0000000   0.0000000   0.0000000   0.0000000   0.0000000   0.0000000   0.0000000   0.0000000
 NMagM=    0.0000000   0.0000000   0.0000000   2.7928460   2.7928460   0.0000000   0.0000000   2.7928460   2.7928460   0.0000000
 AtZNuc=   6.0000000   6.0000000   6.0000000   1.0000000   1.0000000   6.0000000   6.0000000   1.0000000   1.0000000   6.0000000

  Atom        61          62          63          64          65          66          67          68          69          70
 IAtWgt=          12           1          12          12          12          12          12          12          12          12
 AtmWgt=  12.0000000   1.0078250  12.0000000  12.0000000  12.0000000  12.0000000  12.0000000  12.0000000  12.0000000  12.0000000
 NucSpn=           0           1           0           0           0           0           0           0           0           0
 AtZEff=  -0.0000000  -0.0000000  -0.0000000  -0.0000000  -0.0000000  -0.0000000  -0.0000000  -0.0000000  -0.0000000  -0.0000000
 NQMom=    0.0000000   0.0000000   0.0000000   0.0000000   0.0000000   0.0000000   0.0000000   0.0000000   0.0000000   0.0000000
 NMagM=    0.0000000   2.7928460   0.0000000   0.0000000   0.0000000   0.0000000   0.0000000   0.0000000   0.0000000   0.0000000
 AtZNuc=   6.0000000   1.0000000   6.0000000   6.0000000   6.0000000   6.0000000   6.0000000   6.0000000   6.0000000   6.0000000

  Atom        71          72          73          74          75          76          77          78          79          80
 IAtWgt=          12           1           1          12           1           1           1          32          16          16
 AtmWgt=  12.0000000   1.0078250   1.0078250  12.0000000   1.0078250   1.0078250   1.0078250  31.9720718  15.9949146  15.9949146
 NucSpn=           0           1           1           0           1           1           1           0           0           0
 AtZEff=  -0.0000000  -0.0000000  -0.0000000  -0.0000000  -0.0000000  -0.0000000  -0.0000000  -0.0000000  -0.0000000  -0.0000000
 NQMom=    0.0000000   0.0000000   0.0000000   0.0000000   0.0000000   0.0000000   0.0000000   0.0000000   0.0000000   0.0000000
 NMagM=    0.0000000   2.7928460   2.7928460   0.0000000   2.7928460   2.7928460   2.7928460   0.0000000   0.0000000   0.0000000
 AtZNuc=   6.0000000   1.0000000   1.0000000   6.0000000   1.0000000   1.0000000   1.0000000  16.0000000   8.0000000   8.0000000

  Atom        81          82          83          84          85          86          87          88          89          90
 IAtWgt=          32          16          16          14          12          12          12          12          12          12
 AtmWgt=  31.9720718  15.9949146  15.9949146  14.0030740  12.0000000  12.0000000  12.0000000  12.0000000  12.0000000  12.0000000
 NucSpn=           0           0           0           2           0           0           0           0           0           0
 AtZEff=  -0.0000000  -0.0000000  -0.0000000  -0.0000000  -0.0000000  -0.0000000  -0.0000000  -0.0000000  -0.0000000  -0.0000000
 NQMom=    0.0000000   0.0000000   0.0000000   2.0440000   0.0000000   0.0000000   0.0000000   0.0000000   0.0000000   0.0000000
 NMagM=    0.0000000   0.0000000   0.0000000   0.4037610   0.0000000   0.0000000   0.0000000   0.0000000   0.0000000   0.0000000
 AtZNuc=  16.0000000   8.0000000   8.0000000   7.0000000   6.0000000   6.0000000   6.0000000   6.0000000   6.0000000   6.0000000

  Atom        91          92          93          94          95          96          97          98          99         100
 IAtWgt=          12          12          12           1          12           1           1           1          12          12
 AtmWgt=  12.0000000  12.0000000  12.0000000   1.0078250  12.0000000   1.0078250   1.0078250   1.0078250  12.0000000  12.0000000
 NucSpn=           0           0           0           1           0           1           1           1           0           0
 AtZEff=  -0.0000000  -0.0000000  -0.0000000  -0.0000000  -0.0000000  -0.0000000  -0.0000000  -0.0000000  -0.0000000  -0.0000000
 NQMom=    0.0000000   0.0000000   0.0000000   0.0000000   0.0000000   0.0000000   0.0000000   0.0000000   0.0000000   0.0000000
 NMagM=    0.0000000   0.0000000   0.0000000   2.7928460   0.0000000   2.7928460   2.7928460   2.7928460   0.0000000   0.0000000
 AtZNuc=   6.0000000   6.0000000   6.0000000   1.0000000   6.0000000   1.0000000   1.0000000   1.0000000   6.0000000   6.0000000

  Atom       101         102         103         104         105         106         107         108         109         110
 IAtWgt=          12          12           1          12          12           1           1           1          12          19
 AtmWgt=  12.0000000  12.0000000   1.0078250  12.0000000  12.0000000   1.0078250   1.0078250   1.0078250  12.0000000  18.9984032
 NucSpn=           0           0           1           0           0           1           1           1           0           1
 AtZEff=  -0.0000000  -0.0000000  -0.0000000  -0.0000000  -0.0000000  -0.0000000  -0.0000000  -0.0000000  -0.0000000  -0.0000000
 NQMom=    0.0000000   0.0000000   0.0000000   0.0000000   0.0000000   0.0000000   0.0000000   0.0000000   0.0000000   0.0000000
 NMagM=    0.0000000   0.0000000   2.7928460   0.0000000   0.0000000   2.7928460   2.7928460   2.7928460   0.0000000   2.6288670
 AtZNuc=   6.0000000   6.0000000   1.0000000   6.0000000   6.0000000   1.0000000   1.0000000   1.0000000   6.0000000   9.0000000

  Atom       111         112         113         114         115         116         117
 IAtWgt=          19          19          12          19          19          19           1
 AtmWgt=  18.9984032  18.9984032  12.0000000  18.9984032  18.9984032  18.9984032   1.0078250
 NucSpn=           1           1           0           1           1           1           1
 AtZEff=  -0.0000000  -0.0000000  -0.0000000  -0.0000000  -0.0000000  -0.0000000  -0.0000000
 NQMom=    0.0000000   0.0000000   0.0000000   0.0000000   0.0000000   0.0000000   0.0000000
 NMagM=    2.6288670   2.6288670   0.0000000   2.6288670   2.6288670   2.6288670   2.7928460
 AtZNuc=   9.0000000   9.0000000   6.0000000   9.0000000   9.0000000   9.0000000   1.0000000
 Leave Link  101 at Wed Feb  5 12:04:55 2025, MaxMem=  6442450944 cpu:               1.1 elap:               0.1
 (Enter /ihome/crc/install/gaussian/c01/avx2/tar/g16/l202.exe)
 Symmetry turned off by external request.
 Stoichiometry    C60H40F7N3O5S2
 Framework group  C1[X(C60H40F7N3O5S2)]
 Deg. of freedom   345
 Full point group                 C1      NOp   1
                          Input orientation:                          
 ---------------------------------------------------------------------
 Center     Atomic      Atomic             Coordinates (Angstroms)
 Number     Number       Type             X           Y           Z
 ---------------------------------------------------------------------
      1          6           0       -0.709542   -2.994622   -0.974196
      2          6           0       -1.566169   -3.669160   -1.829714
      3          6           0       -2.945777   -3.620326   -1.564853
      4          6           0       -3.391341   -2.892141   -0.469405
      5          6           0       -2.455295   -2.207399    0.342915
      6          7           0       -1.146429   -2.280324    0.071523
      7          1           0       -4.455369   -2.868292   -0.241050
      8          6           0        0.772144   -2.984617   -1.153370
      9          6           0        1.650478   -3.369550   -0.117986
     10          6           0        3.027358   -3.176251   -0.285070
     11          6           0        2.681974   -2.227938   -2.480428
     12          6           0        3.537760   -2.607423   -1.449825
     13          1           0        3.706896   -3.485458    0.511264
     14          1           0        4.612296   -2.453331   -1.557975
     15          1           0        3.043939   -1.763921   -3.398310
     16          6           0        1.320462   -2.432790   -2.312063
     17          6           0        1.141959   -3.979799    1.143141
     18          6           0        1.601338   -3.517800    2.383882
     19          6           0        0.211337   -5.029168    1.116757
     20          6           0        1.128875   -4.081059    3.569796
     21          1           0        2.304686   -2.684875    2.412308
     22          6           0       -0.257632   -5.592380    2.301114
     23          1           0       -0.144518   -5.408804    0.156813
     24          6           0        0.196919   -5.117568    3.533177
     25          1           0        1.486827   -3.700034    4.528054
     26          1           0       -0.980182   -6.409584    2.261805
     27          1           0       -0.174534   -5.556021    4.461106
     28          9           0        0.492694   -2.036793   -3.286081
     29          6           0       -3.906415   -4.373679   -2.439762
     30          1           0       -4.949368   -4.179209   -2.158425
     31          1           0       -3.764177   -4.096869   -3.494830
     32          1           0       -3.720364   -5.455949   -2.363096
     33          6           0       -1.924910   -1.314615    2.561983
     34          6           0       -4.232942   -1.338090    1.784050
     35          6           0       -2.261324   -0.067660    3.355924
     36          1           0       -0.885357   -1.273854    2.224357
     37          1           0       -2.032366   -2.203295    3.214557
     38          6           0       -4.463135   -0.115827    2.662927
     39          1           0       -4.845830   -1.220643    0.881265
     40          1           0       -4.563296   -2.252739    2.315368
     41          1           0       -2.066997    0.826856    2.734488
     42          1           0       -1.630430   -0.010210    4.252509
     43          1           0       -4.317003    0.794777    2.050902
     44          1           0       -5.496353   -0.120422    3.034755
     45          7           0       -2.828639   -1.437135    1.419032
     46          8           0       -3.606611   -0.091616    3.774607
     47          1           0       -0.178795   -0.944512    0.180306
     48          6           0        1.531315    6.332086   -1.540374
     49          6           0        0.968164    5.269651   -0.875158
     50          6           0        1.763224    4.153877   -0.488178
     51          6           0        3.144609    4.150682   -0.837032
     52          6           0        3.700765    5.268199   -1.519277
     53          6           0        2.912176    6.338524   -1.858560
     54          1           0        0.906985    7.177989   -1.831593
     55          1           0       -0.098156    5.280522   -0.650539
     56          6           0        1.223335    3.022857    0.208564
     57          6           0        3.941673    3.023240   -0.532967
     58          1           0        4.762385    5.248728   -1.772076
     59          1           0        3.342058    7.192439   -2.384224
     60          6           0        3.420080    1.915465    0.107799
     61          6           0        2.042032    1.944429    0.495342
     62          1           0        4.991655    3.017808   -0.829862
     63          6           0       -0.248173    3.021503    0.510615
     64          6           0       -1.119841    2.174983   -0.153141
     65          6           0       -0.751039    3.922843    1.503528
     66          6           0       -2.533090    2.220735    0.081637
     67          6           0       -2.155090    3.978639    1.735853
     68          6           0        0.104451    4.747290    2.285338
     69          6           0       -3.018541    3.133460    1.000680
     70          6           0       -2.668178    4.873549    2.715375
     71          6           0       -0.418888    5.595044    3.232037
     72          1           0        1.183911    4.696390    2.139102
     73          1           0       -4.095233    3.193251    1.170890
     74          6           0       -1.818324    5.666290    3.445332
     75          1           0       -3.746974    4.907659    2.877862
     76          1           0        0.249528    6.216721    3.829460
     77          1           0       -2.215728    6.347897    4.198835
     78         16           0        1.276915    0.530252    1.235080
     79          8           0        0.435725    0.984237    2.294629
     80          8           0        2.218548   -0.490532    1.534634
     81         16           0       -0.391228    0.903383   -1.164954
     82          8           0        0.574102    1.501767   -2.017069
     83          8           0       -1.382790    0.057721   -1.726462
     84          7           0        0.364338   -0.028183   -0.025902
     85          6           0        4.305906    0.806843    0.313421
     86          6           0        5.144942   -0.064032    0.407761
     87          6           0       -3.487556    1.394651   -0.595590
     88          6           0       -4.363256    0.750375   -1.134600
     89          6           0       -5.326255   -0.041686   -1.839321
     90          6           0       -6.697594   -0.019468   -1.514004
     91          6           0       -4.891764   -0.863638   -2.891583
     92          6           0       -7.604427   -0.802633   -2.222204
     93          6           0       -5.806192   -1.635957   -3.602671
     94          1           0       -3.828680   -0.880502   -3.136737
     95          6           0       -7.159830   -1.611180   -3.268190
     96          1           0       -8.661829   -0.774784   -1.959006
     97          1           0       -5.457848   -2.261820   -4.425542
     98          1           0       -7.875636   -2.217688   -3.824293
     99          6           0        6.106278   -1.121665    0.509801
    100          6           0        6.064372   -2.004813    1.598994
    101          6           0        7.093129   -1.310921   -0.480086
    102          6           0        6.980756   -3.049340    1.695508
    103          1           0        5.303530   -1.859145    2.366597
    104          6           0        8.005248   -2.356269   -0.378171
    105          6           0        7.950583   -3.227044    0.710640
    106          1           0        6.934836   -3.728761    2.547876
    107          1           0        8.759568   -2.491713   -1.153305
    108          1           0        8.667784   -4.045223    0.785585
    109          6           0        7.132020   -0.391985   -1.674431
    110          9           0        8.139876   -0.687197   -2.496662
    111          9           0        7.279083    0.889190   -1.320245
    112          9           0        6.005993   -0.466626   -2.394014
    113          6           0       -7.180410    0.861857   -0.392041
    114          9           0       -6.855563    2.143508   -0.583002
    115          9           0       -6.647578    0.505315    0.786506
    116          9           0       -8.504457    0.808466   -0.248495
    117          1           0       -1.171845   -4.234680   -2.674822
 ---------------------------------------------------------------------
 Rotational constants (GHZ):           0.0401480           0.0224179           0.0182693
 Leave Link  202 at Wed Feb  5 12:04:55 2025, MaxMem=  6442450944 cpu:               0.7 elap:               0.0
 (Enter /ihome/crc/install/gaussian/c01/avx2/tar/g16/l301.exe)
 Standard basis: def2TZVPP (5D, 7F)
 Ernie: Thresh=  0.10000D-02 Tol=  0.10000D-05 Strict=F.
  2969 basis functions,  4643 primitive gaussians,  3396 cartesian basis functions
   278 alpha electrons      278 beta electrons
       nuclear repulsion energy     14680.7222163183 Hartrees.
 IExCor=  402 DFT=T Ex+Corr=B3LYP ExCW=0 ScaHFX=  0.200000
 ScaDFX=  0.800000  0.720000  1.000000  0.810000 ScalE2=  1.000000  1.000000
 IRadAn=      5 IRanWt=     -1 IRanGd=            0 ICorTp=0 IEmpDi=141
 NAtoms=  117 NActive=  117 NUniq=  117 SFac= 1.00D+00 NAtFMM=   60 NAOKFM=T Big=T
 Integral buffers will be    131072 words long.
 Raffenetti 2 integral format.
 Two-electron integral symmetry is turned off.
 R6Disp:  Grimme-D3(BJ) Dispersion energy=       -0.3755786504 Hartrees.
 Nuclear repulsion after empirical dispersion term =    14680.3466376680 Hartrees.
 ------------------------------------------------------------------------------
 Polarizable Continuum Model (PCM)
 =================================
 Model                : PCM.
 Atomic radii         : SMD-Coulomb.
 Polarization charges : Total charges.
 Charge compensation  : None.
 Solution method      : On-the-fly selection.
 Cavity type          : VdW (van der Waals Surface) (Alpha=1.000).
 Cavity algorithm     : GePol (No added spheres)
                        Default sphere list used, NSphG=  117.
                        Lebedev-Laikov grids with approx.  5.0 points / Ang**2.
                        Smoothing algorithm: York/Karplus (Gamma=1.0000).
                        Polarization charges: spherical gaussians, with
                                              point-specific exponents (IZeta= 3).
                        Self-potential: point-specific (ISelfS= 7).
                        Self-field    : sphere-specific E.n sum rule (ISelfD= 2).
 Solvent              : PropylEthanoate, Eps=   5.520500 Eps(inf)=   1.916010
 ------------------------------------------------------------------------------
 GePol: Number of generator spheres                  =     117
 GePol: Total number of spheres                      =     117
 GePol: Number of exposed spheres                    =     117 (100.00%)
 GePol: Number of points                             =    8216
 GePol: Average weight of points                     =       0.11
 GePol: Minimum weight of points                     =   0.10D-11
 GePol: Maximum weight of points                     =    0.21501
 GePol: Number of points with low weight             =     553
 GePol: Fraction of low-weight points (<1% of avg)   =       6.73%
 GePol: Cavity surface area                          =    913.796 Ang**2
 GePol: Cavity volume                                =   1052.110 Ang**3
 ------------------------------------------------------------------------------
 Atomic radii for non-electrostatic terms: SMD-CDS.
 ------------------------------------------------------------------------------
 PCM non-electrostatic energy =        -0.0219465889 Hartrees.
 Nuclear repulsion after PCM non-electrostatic terms =    14680.3246910791 Hartrees.
 Leave Link  301 at Wed Feb  5 12:04:55 2025, MaxMem=  6442450944 cpu:               1.7 elap:               0.1
 (Enter /ihome/crc/install/gaussian/c01/avx2/tar/g16/l302.exe)
 NPDir=0 NMtPBC=     1 NCelOv=     1 NCel=       1 NClECP=     1 NCelD=      1
         NCelK=      1 NCelE2=     1 NClLst=     1 CellRange=     0.0.
 One-electron integrals computed using PRISM.
   1 Symmetry operations used in ECPInt.
 ECPInt:  NShTT=  597871 NPrTT= 1758715 LenC2=  385423 LenP2D=  726136.
 LDataN:  DoStor=T MaxTD1= 6 Len=  172
 Number of processors reduced to  23 by ecpmxn.
 NBasis=  2969 RedAO= T EigKep=  1.78D-06  NBF=  2969
 NBsUse=  2969 1.00D-06 EigRej= -1.00D+00 NBFU=  2969
 Precomputing XC quadrature grid using
 IXCGrd= 4 IRadAn=           5 IRanWt=          -1 IRanGd=           0 AccXCQ= 0.00D+00.
 Generated NRdTot=       0 NPtTot=           0 NUsed=           0 NTot=          32
 NSgBfM=  2859  2841  2857  2858  2859 MxSgAt=   117 MxSgA2=   117.
 Leave Link  302 at Wed Feb  5 12:05:05 2025, MaxMem=  6442450944 cpu:             333.4 elap:              10.7
 (Enter /ihome/crc/install/gaussian/c01/avx2/tar/g16/l303.exe)
 DipDrv:  MaxL=1.
 Leave Link  303 at Wed Feb  5 12:05:06 2025, MaxMem=  6442450944 cpu:              17.2 elap:               0.7
 (Enter /ihome/crc/install/gaussian/c01/avx2/tar/g16/l401.exe)
 ExpMin= 9.52D-02 ExpMax= 6.07D+04 ExpMxC= 2.07D+03 IAcc=3 IRadAn=         5 AccDes= 0.00D+00
 Harris functional with IExCor=  402 and IRadAn=       5 diagonalized for initial guess.
 HarFok:  IExCor=  402 AccDes= 0.00D+00 IRadAn=         5 IDoV= 1 UseB2=F ITyADJ=14
 ICtDFT=  3500011 ScaDFX=  1.000000  1.000000  1.000000  1.000000
 FoFCou: FMM=F IPFlag=           0 FMFlag=      100000 FMFlg1=        2001
         NFxFlg=           0 DoJE=T BraDBF=F KetDBF=T FulRan=T
         wScrn=  0.000000 ICntrl=       500 IOpCl=  0 I1Cent=   200000004 NGrid=           0
         NMat0=    1 NMatS0=      1 NMatT0=    0 NMatD0=    1 NMtDS0=    0 NMtDT0=    0
 Symmetry not used in FoFCou.
 Harris En= -4347.89796268117    
 JPrj=0 DoOrth=F DoCkMO=F.
 Leave Link  401 at Wed Feb  5 12:05:19 2025, MaxMem=  6442450944 cpu:             411.5 elap:              13.0
 (Enter /ihome/crc/install/gaussian/c01/avx2/tar/g16/l502.exe)
 Two-electron integral symmetry not used.
 Closed shell SCF:
 Using DIIS extrapolation, IDIIS=  1040.
 NGot=  6442450944 LenX=  6419253176 LenY=  6407716964
 Requested convergence on RMS density matrix=1.00D-08 within 128 cycles.
 Requested convergence on MAX density matrix=1.00D-06.
 Requested convergence on             energy=1.00D-06.
 No special actions if energy rises.
 Fock matrices will be formed incrementally for  20 cycles.

 Cycle   1  Pass 1  IDiag  1:
 FoFJK:  IHMeth= 1 ICntrl=       0 DoSepK=F KAlg= 0 I1Cent=           0 FoldK=F
 IRaf= 600000000 NMat=       1 IRICut=       1 DoRegI=T DoRafI=F ISym2E= 0 IDoP0=0 IntGTp=1.
 FoFCou: FMM=T IPFlag=           0 FMFlag=      100000 FMFlg1=        2001
         NFxFlg=           0 DoJE=F BraDBF=F KetDBF=F FulRan=T
         wScrn=  0.000000 ICntrl=         0 IOpCl=  0 I1Cent=           0 NGrid=           0
         NMat0=    1 NMatS0=      1 NMatT0=    0 NMatD0=    1 NMtDS0=    0 NMtDT0=    0
 Symmetry not used in FoFCou.
 FMM levels:  10  Number of levels for PrismC:   9
 Inv3:  Mode=1 IEnd=   202507968.
 Iteration    1 A*A^-1 deviation from unit magnitude is 3.77D-15 for   7781.
 Iteration    1 A*A^-1 deviation from orthogonality  is 2.64D-15 for   5307   4841.
 Iteration    1 A^-1*A deviation from unit magnitude is 3.77D-15 for   7650.
 Iteration    1 A^-1*A deviation from orthogonality  is 2.40D-14 for   3821   3753.
 E= -4345.93891518924    
 DIIS: error= 9.79D-03 at cycle   1 NSaved=   1.
 NSaved= 1 IEnMin= 1 EnMin= -4345.93891518924     IErMin= 1 ErrMin= 9.79D-03
 ErrMax= 9.79D-03  0.00D+00 EMaxC= 1.00D-01 BMatC= 2.37D+00 BMatP= 2.37D+00
 IDIUse=3 WtCom= 9.02D-01 WtEn= 9.79D-02
 Coeff-Com:  0.100D+01
 Coeff-En:   0.100D+01
 Coeff:      0.100D+01
 Gap=     0.136 Goal=   None    Shift=    0.000
 GapD=    0.136 DampG=1.000 DampE=1.000 DampFc=1.0000 IDamp=-1.
 RMSDP=2.52D-03 MaxDP=9.54D-01              OVMax= 2.46D-01

 Cycle   2  Pass 1  IDiag  1:
 RMSU=  2.50D-03    CP:  1.10D+00
 E= -4343.58104204321     Delta-E=        2.357873146031 Rises=F Damp=F
 DIIS: error= 1.88D-02 at cycle   2 NSaved=   2.
 NSaved= 2 IEnMin= 1 EnMin= -4345.93891518924     IErMin= 1 ErrMin= 9.79D-03
 ErrMax= 1.88D-02  0.00D+00 EMaxC= 1.00D-01 BMatC= 5.59D+00 BMatP= 2.37D+00
 IDIUse=2 WtCom= 0.00D+00 WtEn= 1.00D+00
 Coeff-En:   0.679D+00 0.321D+00
 Coeff:      0.679D+00 0.321D+00
 Gap=     0.182 Goal=   None    Shift=    0.000
 RMSDP=1.90D-03 MaxDP=7.87D-01 DE= 2.36D+00 OVMax= 2.43D-01

 Cycle   3  Pass 1  IDiag  1:
 RMSU=  8.66D-04    CP:  1.02D+00  3.34D-01
 E= -4347.63053350734     Delta-E=       -4.049491464135 Rises=F Damp=F
 DIIS: error= 3.61D-03 at cycle   3 NSaved=   3.
 NSaved= 3 IEnMin= 3 EnMin= -4347.63053350734     IErMin= 3 ErrMin= 3.61D-03
 ErrMax= 3.61D-03  0.00D+00 EMaxC= 1.00D-01 BMatC= 2.21D-01 BMatP= 2.37D+00
 IDIUse=3 WtCom= 9.64D-01 WtEn= 3.61D-02
 Coeff-Com:  0.281D+00 0.157D+00 0.562D+00
 Coeff-En:   0.000D+00 0.000D+00 0.100D+01
 Coeff:      0.271D+00 0.151D+00 0.578D+00
 Gap=     0.132 Goal=   None    Shift=    0.000
 RMSDP=7.49D-04 MaxDP=1.65D-01 DE=-4.05D+00 OVMax= 8.51D-02

 Cycle   4  Pass 1  IDiag  1:
 RMSU=  4.35D-04    CP:  9.91D-01  2.93D-01  3.17D-01
 E= -4347.78845466781     Delta-E=       -0.157921160466 Rises=F Damp=F
 DIIS: error= 2.39D-03 at cycle   4 NSaved=   4.
 NSaved= 4 IEnMin= 4 EnMin= -4347.78845466781     IErMin= 4 ErrMin= 2.39D-03
 ErrMax= 2.39D-03  0.00D+00 EMaxC= 1.00D-01 BMatC= 6.33D-02 BMatP= 2.21D-01
 IDIUse=3 WtCom= 9.76D-01 WtEn= 2.39D-02
 Coeff-Com:  0.709D-01 0.244D-01 0.354D+00 0.551D+00
 Coeff-En:   0.000D+00 0.000D+00 0.215D+00 0.785D+00
 Coeff:      0.692D-01 0.238D-01 0.351D+00 0.557D+00
 Gap=     0.131 Goal=   None    Shift=    0.000
 RMSDP=2.35D-04 MaxDP=9.13D-02 DE=-1.58D-01 OVMax= 4.71D-02

 Cycle   5  Pass 1  IDiag  1:
 RMSU=  1.20D-04    CP:  9.91D-01  2.76D-01  4.96D-01  7.16D-01
 E= -4347.83853149530     Delta-E=       -0.050076827496 Rises=F Damp=F
 DIIS: error= 1.35D-03 at cycle   5 NSaved=   5.
 NSaved= 5 IEnMin= 5 EnMin= -4347.83853149530     IErMin= 5 ErrMin= 1.35D-03
 ErrMax= 1.35D-03  0.00D+00 EMaxC= 1.00D-01 BMatC= 6.96D-03 BMatP= 6.33D-02
 IDIUse=3 WtCom= 9.86D-01 WtEn= 1.35D-02
 Coeff-Com:  0.147D-01-0.245D-02 0.158D+00 0.335D+00 0.495D+00
 Coeff-En:   0.000D+00 0.000D+00 0.000D+00 0.503D-01 0.950D+00
 Coeff:      0.145D-01-0.242D-02 0.156D+00 0.331D+00 0.501D+00
 Gap=     0.126 Goal=   None    Shift=    0.000
 RMSDP=6.15D-05 MaxDP=1.82D-02 DE=-5.01D-02 OVMax= 1.72D-02

 Cycle   6  Pass 1  IDiag  1:
 RMSU=  3.76D-05    CP:  9.93D-01  2.82D-01  5.01D-01  7.30D-01  6.23D-01
 E= -4347.84412688363     Delta-E=       -0.005595388322 Rises=F Damp=F
 DIIS: error= 5.02D-04 at cycle   6 NSaved=   6.
 NSaved= 6 IEnMin= 6 EnMin= -4347.84412688363     IErMin= 6 ErrMin= 5.02D-04
 ErrMax= 5.02D-04  0.00D+00 EMaxC= 1.00D-01 BMatC= 1.03D-03 BMatP= 6.96D-03
 IDIUse=3 WtCom= 9.95D-01 WtEn= 5.02D-03
 Coeff-Com:  0.269D-02-0.432D-02 0.668D-01 0.156D+00 0.325D+00 0.453D+00
 Coeff-En:   0.000D+00 0.000D+00 0.000D+00 0.000D+00 0.128D+00 0.872D+00
 Coeff:      0.267D-02-0.429D-02 0.665D-01 0.155D+00 0.324D+00 0.456D+00
 Gap=     0.127 Goal=   None    Shift=    0.000
 RMSDP=1.91D-05 MaxDP=4.86D-03 DE=-5.60D-03 OVMax= 6.30D-03

 Cycle   7  Pass 1  IDiag  1:
 RMSU=  1.48D-05    CP:  9.93D-01  2.81D-01  5.08D-01  7.24D-01  6.62D-01
                    CP:  7.57D-01
 E= -4347.84506777494     Delta-E=       -0.000940891314 Rises=F Damp=F
 DIIS: error= 1.43D-04 at cycle   7 NSaved=   7.
 NSaved= 7 IEnMin= 7 EnMin= -4347.84506777494     IErMin= 7 ErrMin= 1.43D-04
 ErrMax= 1.43D-04  0.00D+00 EMaxC= 1.00D-01 BMatC= 9.25D-05 BMatP= 1.03D-03
 IDIUse=3 WtCom= 9.99D-01 WtEn= 1.43D-03
 Coeff-Com:  0.960D-04-0.238D-02 0.223D-01 0.541D-01 0.138D+00 0.284D+00
 Coeff-Com:  0.504D+00
 Coeff-En:   0.000D+00 0.000D+00 0.000D+00 0.000D+00 0.000D+00 0.509D-01
 Coeff-En:   0.949D+00
 Coeff:      0.958D-04-0.238D-02 0.223D-01 0.540D-01 0.137D+00 0.284D+00
 Coeff:      0.505D+00
 Gap=     0.126 Goal=   None    Shift=    0.000
 RMSDP=6.27D-06 MaxDP=1.93D-03 DE=-9.41D-04 OVMax= 1.74D-03

 Cycle   8  Pass 1  IDiag  1:
 RMSU=  4.02D-06    CP:  9.93D-01  2.81D-01  5.06D-01  7.26D-01  6.64D-01
                    CP:  7.45D-01  7.01D-01
 E= -4347.84515048543     Delta-E=       -0.000082710490 Rises=F Damp=F
 DIIS: error= 2.67D-05 at cycle   8 NSaved=   8.
 NSaved= 8 IEnMin= 8 EnMin= -4347.84515048543     IErMin= 8 ErrMin= 2.67D-05
 ErrMax= 2.67D-05  0.00D+00 EMaxC= 1.00D-01 BMatC= 5.79D-06 BMatP= 9.25D-05
 IDIUse=1 WtCom= 1.00D+00 WtEn= 0.00D+00
 Coeff-Com: -0.148D-03-0.969D-03 0.664D-02 0.164D-01 0.489D-01 0.121D+00
 Coeff-Com:  0.274D+00 0.534D+00
 Coeff:     -0.148D-03-0.969D-03 0.664D-02 0.164D-01 0.489D-01 0.121D+00
 Coeff:      0.274D+00 0.534D+00
 Gap=     0.126 Goal=   None    Shift=    0.000
 RMSDP=1.89D-06 MaxDP=5.97D-04 DE=-8.27D-05 OVMax= 6.68D-04

 Cycle   9  Pass 1  IDiag  1:
 RMSU=  1.49D-06    CP:  9.93D-01  2.81D-01  5.05D-01  7.27D-01  6.59D-01
                    CP:  7.52D-01  6.82D-01  8.18D-01
 E= -4347.84515474616     Delta-E=       -0.000004260732 Rises=F Damp=F
 DIIS: error= 1.36D-05 at cycle   9 NSaved=   9.
 NSaved= 9 IEnMin= 9 EnMin= -4347.84515474616     IErMin= 9 ErrMin= 1.36D-05
 ErrMax= 1.36D-05  0.00D+00 EMaxC= 1.00D-01 BMatC= 1.34D-06 BMatP= 5.79D-06
 IDIUse=1 WtCom= 1.00D+00 WtEn= 0.00D+00
 Coeff-Com: -0.102D-03-0.262D-03 0.104D-02 0.273D-02 0.116D-01 0.367D-01
 Coeff-Com:  0.987D-01 0.346D+00 0.504D+00
 Coeff:     -0.102D-03-0.262D-03 0.104D-02 0.273D-02 0.116D-01 0.367D-01
 Coeff:      0.987D-01 0.346D+00 0.504D+00
 Gap=     0.126 Goal=   None    Shift=    0.000
 RMSDP=9.63D-07 MaxDP=4.39D-04 DE=-4.26D-06 OVMax= 3.70D-04

 Cycle  10  Pass 1  IDiag  1:
 RMSU=  6.25D-07    CP:  9.93D-01  2.81D-01  5.06D-01  7.27D-01  6.62D-01
                    CP:  7.53D-01  7.03D-01  8.11D-01  6.50D-01
 E= -4347.84515593595     Delta-E=       -0.000001189785 Rises=F Damp=F
 DIIS: error= 5.35D-06 at cycle  10 NSaved=  10.
 NSaved=10 IEnMin=10 EnMin= -4347.84515593595     IErMin=10 ErrMin= 5.35D-06
 ErrMax= 5.35D-06  0.00D+00 EMaxC= 1.00D-01 BMatC= 1.88D-07 BMatP= 1.34D-06
 IDIUse=1 WtCom= 1.00D+00 WtEn= 0.00D+00
 Coeff-Com: -0.540D-04-0.443D-04-0.160D-03-0.259D-03 0.160D-02 0.922D-02
 Coeff-Com:  0.301D-01 0.153D+00 0.325D+00 0.481D+00
 Coeff:     -0.540D-04-0.443D-04-0.160D-03-0.259D-03 0.160D-02 0.922D-02
 Coeff:      0.301D-01 0.153D+00 0.325D+00 0.481D+00
 Gap=     0.126 Goal=   None    Shift=    0.000
 RMSDP=3.61D-07 MaxDP=1.64D-04 DE=-1.19D-06 OVMax= 1.05D-04

 Cycle  11  Pass 1  IDiag  1:
 RMSU=  2.00D-07    CP:  9.93D-01  2.81D-01  5.06D-01  7.27D-01  6.61D-01
                    CP:  7.55D-01  6.97D-01  8.24D-01  7.63D-01  7.00D-01
 E= -4347.84515611039     Delta-E=       -0.000000174441 Rises=F Damp=F
 DIIS: error= 1.49D-06 at cycle  11 NSaved=  11.
 NSaved=11 IEnMin=11 EnMin= -4347.84515611039     IErMin=11 ErrMin= 1.49D-06
 ErrMax= 1.49D-06  0.00D+00 EMaxC= 1.00D-01 BMatC= 1.44D-08 BMatP= 1.88D-07
 IDIUse=1 WtCom= 1.00D+00 WtEn= 0.00D+00
 Coeff-Com: -0.223D-04 0.489D-05-0.189D-03-0.381D-03-0.259D-03 0.133D-02
 Coeff-Com:  0.597D-02 0.448D-01 0.124D+00 0.272D+00 0.553D+00
 Coeff:     -0.223D-04 0.489D-05-0.189D-03-0.381D-03-0.259D-03 0.133D-02
 Coeff:      0.597D-02 0.448D-01 0.124D+00 0.272D+00 0.553D+00
 Gap=     0.126 Goal=   None    Shift=    0.000
 RMSDP=1.19D-07 MaxDP=2.75D-05 DE=-1.74D-07 OVMax= 2.92D-05

 Cycle  12  Pass 1  IDiag  1:
 RMSU=  7.47D-08    CP:  9.93D-01  2.81D-01  5.06D-01  7.27D-01  6.61D-01
                    CP:  7.54D-01  6.99D-01  8.34D-01  7.47D-01  7.26D-01
                    CP:  6.98D-01
 E= -4347.84515612387     Delta-E=       -0.000000013482 Rises=F Damp=F
 DIIS: error= 4.23D-07 at cycle  12 NSaved=  12.
 NSaved=12 IEnMin=12 EnMin= -4347.84515612387     IErMin=12 ErrMin= 4.23D-07
 ErrMax= 4.23D-07  0.00D+00 EMaxC= 1.00D-01 BMatC= 1.38D-09 BMatP= 1.44D-08
 IDIUse=1 WtCom= 1.00D+00 WtEn= 0.00D+00
 Coeff-Com: -0.645D-05 0.936D-05-0.941D-04-0.187D-03-0.348D-03-0.307D-03
 Coeff-Com: -0.147D-03 0.653D-02 0.295D-01 0.837D-01 0.285D+00 0.596D+00
 Coeff:     -0.645D-05 0.936D-05-0.941D-04-0.187D-03-0.348D-03-0.307D-03
 Coeff:     -0.147D-03 0.653D-02 0.295D-01 0.837D-01 0.285D+00 0.596D+00
 Gap=     0.126 Goal=   None    Shift=    0.000
 RMSDP=4.45D-08 MaxDP=1.23D-05 DE=-1.35D-08 OVMax= 1.05D-05

 Cycle  13  Pass 1  IDiag  1:
 RMSU=  2.28D-08    CP:  9.93D-01  2.81D-01  5.06D-01  7.27D-01  6.61D-01
                    CP:  7.55D-01  6.99D-01  8.33D-01  7.53D-01  7.40D-01
                    CP:  7.43D-01  7.92D-01
 E= -4347.84515612536     Delta-E=       -0.000000001488 Rises=F Damp=F
 DIIS: error= 1.77D-07 at cycle  13 NSaved=  13.
 NSaved=13 IEnMin=13 EnMin= -4347.84515612536     IErMin=13 ErrMin= 1.77D-07
 ErrMax= 1.77D-07  0.00D+00 EMaxC= 1.00D-01 BMatC= 2.36D-10 BMatP= 1.38D-09
 IDIUse=1 WtCom= 1.00D+00 WtEn= 0.00D+00
 Coeff-Com: -0.119D-05 0.481D-05-0.317D-04-0.605D-04-0.176D-03-0.346D-03
 Coeff-Com: -0.854D-03-0.213D-02 0.124D-02 0.100D-01 0.912D-01 0.344D+00
 Coeff-Com:  0.557D+00
 Coeff:     -0.119D-05 0.481D-05-0.317D-04-0.605D-04-0.176D-03-0.346D-03
 Coeff:     -0.854D-03-0.213D-02 0.124D-02 0.100D-01 0.912D-01 0.344D+00
 Coeff:      0.557D+00
 Gap=     0.126 Goal=   None    Shift=    0.000
 RMSDP=1.20D-08 MaxDP=3.06D-06 DE=-1.49D-09 OVMax= 4.00D-06

 Cycle  14  Pass 1  IDiag  1:
 RMSU=  8.30D-09    CP:  9.93D-01  2.81D-01  5.06D-01  7.27D-01  6.61D-01
                    CP:  7.55D-01  6.99D-01  8.33D-01  7.55D-01  7.44D-01
                    CP:  7.63D-01  8.41D-01  8.10D-01
 E= -4347.84515612541     Delta-E=       -0.000000000049 Rises=F Damp=F
 DIIS: error= 7.59D-08 at cycle  14 NSaved=  14.
 NSaved=14 IEnMin=14 EnMin= -4347.84515612541     IErMin=14 ErrMin= 7.59D-08
 ErrMax= 7.59D-08  0.00D+00 EMaxC= 1.00D-01 BMatC= 4.57D-11 BMatP= 2.36D-10
 IDIUse=1 WtCom= 1.00D+00 WtEn= 0.00D+00
 Coeff-Com:  0.376D-06 0.118D-05-0.239D-05-0.286D-05-0.499D-04-0.166D-03
 Coeff-Com: -0.543D-03-0.272D-02-0.474D-02-0.102D-01 0.592D-02 0.113D+00
 Coeff-Com:  0.349D+00 0.550D+00
 Coeff:      0.376D-06 0.118D-05-0.239D-05-0.286D-05-0.499D-04-0.166D-03
 Coeff:     -0.543D-03-0.272D-02-0.474D-02-0.102D-01 0.592D-02 0.113D+00
 Coeff:      0.349D+00 0.550D+00
 Gap=     0.126 Goal=   None    Shift=    0.000
 RMSDP=6.27D-09 MaxDP=2.28D-06 DE=-4.91D-11 OVMax= 1.70D-06

 Cycle  15  Pass 1  IDiag  1:
 RMSU=  3.86D-09    CP:  9.93D-01  2.81D-01  5.06D-01  7.27D-01  6.61D-01
                    CP:  7.55D-01  6.99D-01  8.33D-01  7.55D-01  7.42D-01
                    CP:  7.69D-01  8.58D-01  8.74D-01  8.09D-01
 E= -4347.84515612545     Delta-E=       -0.000000000038 Rises=F Damp=F
 DIIS: error= 2.77D-08 at cycle  15 NSaved=  15.
 NSaved=15 IEnMin=15 EnMin= -4347.84515612545     IErMin=15 ErrMin= 2.77D-08
 ErrMax= 2.77D-08  0.00D+00 EMaxC= 1.00D-01 BMatC= 7.77D-12 BMatP= 4.57D-11
 IDIUse=1 WtCom= 1.00D+00 WtEn= 0.00D+00
 Coeff-Com:  0.385D-06 0.557D-07 0.208D-05 0.442D-05-0.976D-05-0.503D-04
 Coeff-Com: -0.194D-03-0.123D-02-0.268D-02-0.718D-02-0.715D-02 0.233D-01
 Coeff-Com:  0.137D+00 0.349D+00 0.509D+00
 Coeff:      0.385D-06 0.557D-07 0.208D-05 0.442D-05-0.976D-05-0.503D-04
 Coeff:     -0.194D-03-0.123D-02-0.268D-02-0.718D-02-0.715D-02 0.233D-01
 Coeff:      0.137D+00 0.349D+00 0.509D+00
 Gap=     0.126 Goal=   None    Shift=    0.000
 RMSDP=2.20D-09 MaxDP=4.19D-07 DE=-3.82D-11 OVMax= 6.45D-07

 Error on total polarization charges =  0.07516
 SCF Done:  E(RB3LYP) =  -4347.84515613     A.U. after   15 cycles
            NFock= 15  Conv=0.22D-08     -V/T= 2.0044
 KE= 4.328927713156D+03 PE=-3.955824919919D+04 EE= 1.620115163883D+04
 SMD-CDS (non-electrostatic) energy       (kcal/mol) =     -13.77
 (included in total energy above)
 Leave Link  502 at Wed Feb  5 12:50:30 2025, MaxMem=  6442450944 cpu:           86276.2 elap:            2710.0
 (Enter /ihome/crc/install/gaussian/c01/avx2/tar/g16/l601.exe)
 Copying SCF densities to generalized density rwf, IOpCl= 0 IROHF=0.
 Hyperfine terms turned off by default for NAtoms > 100.

 **********************************************************************

            Population analysis using the SCF Density.

 **********************************************************************

 Alpha  occ. eigenvalues --  -89.06184 -89.06047 -24.72257 -24.72056 -24.71869
 Alpha  occ. eigenvalues --  -24.71847 -24.71679 -24.71623 -24.69156 -19.12469
 Alpha  occ. eigenvalues --  -19.12463 -19.12416 -19.12262 -19.12260 -14.34697
 Alpha  occ. eigenvalues --  -14.33371 -14.31028 -10.42937 -10.42773 -10.25638
 Alpha  occ. eigenvalues --  -10.24592 -10.22673 -10.22614 -10.22475 -10.22392
 Alpha  occ. eigenvalues --  -10.22371 -10.22254 -10.22186 -10.22184 -10.21938
 Alpha  occ. eigenvalues --  -10.21119 -10.21067 -10.20851 -10.20568 -10.20472
 Alpha  occ. eigenvalues --  -10.20376 -10.20268 -10.20204 -10.19700 -10.19652
 Alpha  occ. eigenvalues --  -10.19646 -10.19631 -10.19601 -10.19582 -10.19304
 Alpha  occ. eigenvalues --  -10.19203 -10.19137 -10.19110 -10.19097 -10.19072
 Alpha  occ. eigenvalues --  -10.19017 -10.18999 -10.18808 -10.18718 -10.18704
 Alpha  occ. eigenvalues --  -10.18694 -10.18691 -10.18678 -10.18677 -10.18644
 Alpha  occ. eigenvalues --  -10.18628 -10.18597 -10.18587 -10.18383 -10.18227
 Alpha  occ. eigenvalues --  -10.18192 -10.17735 -10.17514 -10.17286 -10.17237
 Alpha  occ. eigenvalues --  -10.17192 -10.17181 -10.17077 -10.17065 -10.16922
 Alpha  occ. eigenvalues --  -10.16740 -10.16594  -8.10844  -8.10667  -6.07219
 Alpha  occ. eigenvalues --   -6.07046  -6.07026  -6.07003  -6.06857  -6.06826
 Alpha  occ. eigenvalues --   -1.32959  -1.32746  -1.23948  -1.23719  -1.23548
 Alpha  occ. eigenvalues --   -1.23359  -1.23090  -1.14614  -1.13273  -1.04186
 Alpha  occ. eigenvalues --   -1.02656  -1.02334  -0.97834  -0.93305  -0.92083
 Alpha  occ. eigenvalues --   -0.90873  -0.89336  -0.88653  -0.88630  -0.87093
 Alpha  occ. eigenvalues --   -0.85288  -0.85015  -0.84813  -0.82817  -0.81791
 Alpha  occ. eigenvalues --   -0.80074  -0.79862  -0.79066  -0.78897  -0.78812
 Alpha  occ. eigenvalues --   -0.78328  -0.77475  -0.77348  -0.77322  -0.77040
 Alpha  occ. eigenvalues --   -0.75878  -0.75601  -0.74277  -0.73854  -0.73170
 Alpha  occ. eigenvalues --   -0.72616  -0.72246  -0.71102  -0.70918  -0.70842
 Alpha  occ. eigenvalues --   -0.69543  -0.69230  -0.68245  -0.66001  -0.65874
 Alpha  occ. eigenvalues --   -0.65531  -0.64208  -0.63988  -0.63867  -0.63654
 Alpha  occ. eigenvalues --   -0.63578  -0.63129  -0.62900  -0.62625  -0.61281
 Alpha  occ. eigenvalues --   -0.60566  -0.60387  -0.60224  -0.60098  -0.59973
 Alpha  occ. eigenvalues --   -0.59854  -0.59153  -0.59022  -0.58244  -0.58056
 Alpha  occ. eigenvalues --   -0.57702  -0.56536  -0.56158  -0.55857  -0.54372
 Alpha  occ. eigenvalues --   -0.53898  -0.53858  -0.53412  -0.52614  -0.52532
 Alpha  occ. eigenvalues --   -0.52183  -0.51946  -0.51498  -0.51204  -0.50442
 Alpha  occ. eigenvalues --   -0.50202  -0.49326  -0.48756  -0.48705  -0.48583
 Alpha  occ. eigenvalues --   -0.48567  -0.48420  -0.48244  -0.48174  -0.47949
 Alpha  occ. eigenvalues --   -0.47739  -0.47565  -0.47519  -0.47353  -0.47314
 Alpha  occ. eigenvalues --   -0.47223  -0.46846  -0.46616  -0.46378  -0.45938
 Alpha  occ. eigenvalues --   -0.45814  -0.45760  -0.45292  -0.45090  -0.44945
 Alpha  occ. eigenvalues --   -0.44898  -0.44836  -0.44815  -0.44654  -0.44324
 Alpha  occ. eigenvalues --   -0.44263  -0.43964  -0.43797  -0.43730  -0.43326
 Alpha  occ. eigenvalues --   -0.43254  -0.43177  -0.42828  -0.42340  -0.42230
 Alpha  occ. eigenvalues --   -0.42040  -0.42005  -0.41859  -0.41512  -0.41358
 Alpha  occ. eigenvalues --   -0.41290  -0.41218  -0.40985  -0.40825  -0.40026
 Alpha  occ. eigenvalues --   -0.39947  -0.39647  -0.39604  -0.39526  -0.39063
 Alpha  occ. eigenvalues --   -0.38353  -0.38228  -0.37903  -0.37243  -0.37191
 Alpha  occ. eigenvalues --   -0.37136  -0.37004  -0.36971  -0.36886  -0.36861
 Alpha  occ. eigenvalues --   -0.36733  -0.36657  -0.36474  -0.36368  -0.36176
 Alpha  occ. eigenvalues --   -0.35861  -0.35664  -0.35524  -0.35116  -0.34914
 Alpha  occ. eigenvalues --   -0.34672  -0.34498  -0.34146  -0.33801  -0.33312
 Alpha  occ. eigenvalues --   -0.33160  -0.33126  -0.32916  -0.31751  -0.31432
 Alpha  occ. eigenvalues --   -0.30907  -0.30172  -0.29810  -0.29705  -0.29209
 Alpha  occ. eigenvalues --   -0.28579  -0.28156  -0.28058  -0.27822  -0.27784
 Alpha  occ. eigenvalues --   -0.27512  -0.27316  -0.27034  -0.26598  -0.25693
 Alpha  occ. eigenvalues --   -0.25388  -0.25181  -0.24703  -0.24408  -0.23113
 Alpha  occ. eigenvalues --   -0.22604  -0.22270  -0.20695
 Alpha virt. eigenvalues --   -0.08059  -0.07742  -0.07061  -0.06388  -0.04222
 Alpha virt. eigenvalues --   -0.03778  -0.03552  -0.03220  -0.02906  -0.02476
 Alpha virt. eigenvalues --   -0.01345  -0.00729  -0.00472   0.00158   0.00513
 Alpha virt. eigenvalues --    0.01430   0.03287   0.03377   0.03615   0.04004
 Alpha virt. eigenvalues --    0.04312   0.04717   0.05073   0.05170   0.05443
 Alpha virt. eigenvalues --    0.05568   0.05698   0.06022   0.06335   0.06486
 Alpha virt. eigenvalues --    0.06549   0.06776   0.07048   0.07106   0.07351
 Alpha virt. eigenvalues --    0.07727   0.07948   0.08231   0.08403   0.08457
 Alpha virt. eigenvalues --    0.08811   0.09112   0.09148   0.09279   0.09537
 Alpha virt. eigenvalues --    0.09655   0.09727   0.10077   0.10259   0.10445
 Alpha virt. eigenvalues --    0.10557   0.10727   0.10933   0.11076   0.11243
 Alpha virt. eigenvalues --    0.11433   0.11675   0.11807   0.12098   0.12228
 Alpha virt. eigenvalues --    0.12331   0.12378   0.12696   0.12727   0.12905
 Alpha virt. eigenvalues --    0.13049   0.13363   0.13403   0.13566   0.13967
 Alpha virt. eigenvalues --    0.14067   0.14103   0.14212   0.14305   0.14472
 Alpha virt. eigenvalues --    0.14645   0.14745   0.15157   0.15291   0.15414
 Alpha virt. eigenvalues --    0.15553   0.15729   0.15961   0.16001   0.16291
 Alpha virt. eigenvalues --    0.16628   0.16729   0.16971   0.17120   0.17274
 Alpha virt. eigenvalues --    0.17344   0.17618   0.17774   0.18315   0.18395
 Alpha virt. eigenvalues --    0.18577   0.18713   0.18939   0.18959   0.19252
 Alpha virt. eigenvalues --    0.19495   0.19659   0.19762   0.19979   0.20041
 Alpha virt. eigenvalues --    0.20273   0.20413   0.20608   0.20681   0.20764
 Alpha virt. eigenvalues --    0.20801   0.21024   0.21092   0.21305   0.21330
 Alpha virt. eigenvalues --    0.21414   0.21682   0.21790   0.21852   0.22018
 Alpha virt. eigenvalues --    0.22177   0.22359   0.22511   0.22559   0.22837
 Alpha virt. eigenvalues --    0.23055   0.23158   0.23331   0.23395   0.23534
 Alpha virt. eigenvalues --    0.23778   0.23936   0.24119   0.24196   0.24282
 Alpha virt. eigenvalues --    0.24626   0.24689   0.24733   0.24962   0.25033
 Alpha virt. eigenvalues --    0.25191   0.25347   0.25552   0.25804   0.25876
 Alpha virt. eigenvalues --    0.26056   0.26195   0.26287   0.26442   0.26604
 Alpha virt. eigenvalues --    0.26797   0.27162   0.27249   0.27490   0.27516
 Alpha virt. eigenvalues --    0.27583   0.27687   0.27759   0.27988   0.28285
 Alpha virt. eigenvalues --    0.28355   0.28475   0.28640   0.28747   0.28943
 Alpha virt. eigenvalues --    0.29034   0.29145   0.29407   0.29483   0.29725
 Alpha virt. eigenvalues --    0.29815   0.30029   0.30128   0.30227   0.30281
 Alpha virt. eigenvalues --    0.30495   0.30818   0.30967   0.31061   0.31139
 Alpha virt. eigenvalues --    0.31406   0.31504   0.31722   0.31988   0.32120
 Alpha virt. eigenvalues --    0.32202   0.32350   0.32575   0.32644   0.32727
 Alpha virt. eigenvalues --    0.32913   0.33075   0.33214   0.33407   0.33443
 Alpha virt. eigenvalues --    0.33686   0.33745   0.33994   0.34026   0.34172
 Alpha virt. eigenvalues --    0.34278   0.34371   0.34697   0.34877   0.35041
 Alpha virt. eigenvalues --    0.35201   0.35373   0.35405   0.35627   0.35930
 Alpha virt. eigenvalues --    0.35984   0.36059   0.36157   0.36542   0.36790
 Alpha virt. eigenvalues --    0.36869   0.36932   0.37148   0.37367   0.37479
 Alpha virt. eigenvalues --    0.37626   0.37697   0.37874   0.38037   0.38063
 Alpha virt. eigenvalues --    0.38215   0.38384   0.38397   0.38764   0.38979
 Alpha virt. eigenvalues --    0.39173   0.39230   0.39409   0.39520   0.39552
 Alpha virt. eigenvalues --    0.39643   0.39878   0.39980   0.40212   0.40285
 Alpha virt. eigenvalues --    0.40431   0.40601   0.40723   0.40950   0.41047
 Alpha virt. eigenvalues --    0.41213   0.41341   0.41400   0.41694   0.41845
 Alpha virt. eigenvalues --    0.41961   0.41962   0.42057   0.42284   0.42422
 Alpha virt. eigenvalues --    0.42549   0.42573   0.42690   0.42864   0.42995
 Alpha virt. eigenvalues --    0.43306   0.43414   0.43614   0.43684   0.43830
 Alpha virt. eigenvalues --    0.43910   0.44029   0.44177   0.44303   0.44451
 Alpha virt. eigenvalues --    0.44630   0.44767   0.44867   0.44965   0.45131
 Alpha virt. eigenvalues --    0.45369   0.45653   0.45698   0.45879   0.45986
 Alpha virt. eigenvalues --    0.46361   0.46399   0.46582   0.46596   0.46808
 Alpha virt. eigenvalues --    0.46949   0.47051   0.47156   0.47393   0.47796
 Alpha virt. eigenvalues --    0.47889   0.47929   0.48081   0.48231   0.48569
 Alpha virt. eigenvalues --    0.48629   0.48857   0.48888   0.49219   0.49355
 Alpha virt. eigenvalues --    0.49415   0.49499   0.49632   0.49837   0.49926
 Alpha virt. eigenvalues --    0.50154   0.50243   0.50463   0.50504   0.50694
 Alpha virt. eigenvalues --    0.50937   0.50963   0.51039   0.51350   0.51404
 Alpha virt. eigenvalues --    0.51447   0.51578   0.51841   0.52111   0.52203
 Alpha virt. eigenvalues --    0.52415   0.52656   0.52845   0.53063   0.53262
 Alpha virt. eigenvalues --    0.53502   0.53664   0.53791   0.53879   0.54328
 Alpha virt. eigenvalues --    0.54355   0.54448   0.54695   0.54921   0.54949
 Alpha virt. eigenvalues --    0.55393   0.55465   0.55732   0.55818   0.56184
 Alpha virt. eigenvalues --    0.56371   0.56627   0.56677   0.56955   0.57007
 Alpha virt. eigenvalues --    0.57366   0.57421   0.57778   0.57945   0.58608
 Alpha virt. eigenvalues --    0.58770   0.58863   0.59080   0.59218   0.59357
 Alpha virt. eigenvalues --    0.59415   0.59769   0.59821   0.60254   0.60372
 Alpha virt. eigenvalues --    0.60522   0.60593   0.60751   0.61159   0.61280
 Alpha virt. eigenvalues --    0.61554   0.61771   0.62007   0.62090   0.62234
 Alpha virt. eigenvalues --    0.62379   0.62594   0.62725   0.62800   0.63068
 Alpha virt. eigenvalues --    0.63303   0.63401   0.63725   0.63868   0.63930
 Alpha virt. eigenvalues --    0.64368   0.64425   0.64627   0.64842   0.64971
 Alpha virt. eigenvalues --    0.65106   0.65188   0.65454   0.65638   0.65682
 Alpha virt. eigenvalues --    0.65875   0.65934   0.66173   0.66204   0.66342
 Alpha virt. eigenvalues --    0.66477   0.66699   0.66916   0.67041   0.67258
 Alpha virt. eigenvalues --    0.67419   0.67559   0.67690   0.67818   0.67952
 Alpha virt. eigenvalues --    0.68040   0.68121   0.68269   0.68380   0.68479
 Alpha virt. eigenvalues --    0.68604   0.68665   0.68909   0.69077   0.69210
 Alpha virt. eigenvalues --    0.69377   0.69631   0.69937   0.70114   0.70180
 Alpha virt. eigenvalues --    0.70361   0.70453   0.70639   0.70926   0.71030
 Alpha virt. eigenvalues --    0.71080   0.71311   0.71449   0.71860   0.71921
 Alpha virt. eigenvalues --    0.72102   0.72238   0.72497   0.72642   0.72806
 Alpha virt. eigenvalues --    0.72907   0.72965   0.73431   0.73545   0.73615
 Alpha virt. eigenvalues --    0.73958   0.74121   0.74258   0.74350   0.74441
 Alpha virt. eigenvalues --    0.74713   0.74983   0.75335   0.75554   0.75701
 Alpha virt. eigenvalues --    0.75874   0.76028   0.76219   0.76437   0.76715
 Alpha virt. eigenvalues --    0.76850   0.76910   0.77048   0.77201   0.77498
 Alpha virt. eigenvalues --    0.77590   0.77741   0.77916   0.78010   0.78395
 Alpha virt. eigenvalues --    0.78549   0.78677   0.78712   0.79084   0.79092
 Alpha virt. eigenvalues --    0.79334   0.79433   0.79510   0.79673   0.79978
 Alpha virt. eigenvalues --    0.80282   0.80440   0.80724   0.80849   0.80989
 Alpha virt. eigenvalues --    0.81108   0.81271   0.81496   0.81538   0.81883
 Alpha virt. eigenvalues --    0.81991   0.82042   0.82329   0.82414   0.82711
 Alpha virt. eigenvalues --    0.82850   0.82989   0.83189   0.83398   0.83556
 Alpha virt. eigenvalues --    0.83694   0.83847   0.84105   0.84182   0.84306
 Alpha virt. eigenvalues --    0.84409   0.84622   0.84911   0.85036   0.85436
 Alpha virt. eigenvalues --    0.85681   0.85838   0.85878   0.86235   0.86375
 Alpha virt. eigenvalues --    0.86527   0.86720   0.87087   0.87141   0.87430
 Alpha virt. eigenvalues --    0.87557   0.87669   0.87833   0.88096   0.88177
 Alpha virt. eigenvalues --    0.88327   0.88531   0.88681   0.88791   0.88899
 Alpha virt. eigenvalues --    0.89013   0.89465   0.89667   0.89741   0.89881
 Alpha virt. eigenvalues --    0.90046   0.90176   0.90555   0.90581   0.90649
 Alpha virt. eigenvalues --    0.90999   0.91151   0.91319   0.91538   0.91679
 Alpha virt. eigenvalues --    0.91690   0.91958   0.92029   0.92266   0.92463
 Alpha virt. eigenvalues --    0.92685   0.92825   0.93111   0.93191   0.93605
 Alpha virt. eigenvalues --    0.93827   0.93924   0.94273   0.94351   0.94549
 Alpha virt. eigenvalues --    0.94880   0.95037   0.95269   0.95592   0.95637
 Alpha virt. eigenvalues --    0.95802   0.95943   0.96142   0.96357   0.96685
 Alpha virt. eigenvalues --    0.96736   0.96962   0.97041   0.97106   0.97343
 Alpha virt. eigenvalues --    0.97836   0.98019   0.98177   0.98248   0.98545
 Alpha virt. eigenvalues --    0.98800   0.99064   0.99121   0.99281   0.99468
 Alpha virt. eigenvalues --    0.99618   0.99728   0.99817   0.99908   1.00253
 Alpha virt. eigenvalues --    1.00462   1.00813   1.00995   1.01092   1.01248
 Alpha virt. eigenvalues --    1.01326   1.01636   1.01766   1.01955   1.02244
 Alpha virt. eigenvalues --    1.02603   1.02659   1.02857   1.03119   1.03175
 Alpha virt. eigenvalues --    1.03438   1.03721   1.03832   1.03957   1.04188
 Alpha virt. eigenvalues --    1.04550   1.04770   1.04969   1.05296   1.05520
 Alpha virt. eigenvalues --    1.05689   1.05915   1.06062   1.06225   1.06322
 Alpha virt. eigenvalues --    1.06472   1.06492   1.06700   1.07056   1.07277
 Alpha virt. eigenvalues --    1.07377   1.07480   1.07801   1.08087   1.08246
 Alpha virt. eigenvalues --    1.08484   1.08576   1.08752   1.09049   1.09144
 Alpha virt. eigenvalues --    1.09327   1.09482   1.09849   1.09918   1.10173
 Alpha virt. eigenvalues --    1.10376   1.10569   1.10771   1.10885   1.11381
 Alpha virt. eigenvalues --    1.11469   1.11783   1.11816   1.12033   1.12255
 Alpha virt. eigenvalues --    1.12469   1.12631   1.12695   1.13042   1.13095
 Alpha virt. eigenvalues --    1.13354   1.13558   1.13753   1.14295   1.14448
 Alpha virt. eigenvalues --    1.14537   1.14744   1.15051   1.15091   1.15289
 Alpha virt. eigenvalues --    1.15429   1.15717   1.15805   1.16119   1.16307
 Alpha virt. eigenvalues --    1.16494   1.16633   1.16801   1.16994   1.17073
 Alpha virt. eigenvalues --    1.17235   1.17370   1.17547   1.17725   1.18033
 Alpha virt. eigenvalues --    1.18462   1.18514   1.18707   1.18978   1.19043
 Alpha virt. eigenvalues --    1.19358   1.19416   1.19692   1.20206   1.20291
 Alpha virt. eigenvalues --    1.20408   1.20873   1.20902   1.21086   1.21181
 Alpha virt. eigenvalues --    1.21705   1.21818   1.21975   1.22220   1.22424
 Alpha virt. eigenvalues --    1.22668   1.22725   1.23084   1.23161   1.23311
 Alpha virt. eigenvalues --    1.23486   1.23605   1.23808   1.24055   1.24331
 Alpha virt. eigenvalues --    1.24758   1.25167   1.25289   1.25495   1.25688
 Alpha virt. eigenvalues --    1.25855   1.26103   1.26439   1.26496   1.26767
 Alpha virt. eigenvalues --    1.26953   1.27035   1.27243   1.27570   1.27760
 Alpha virt. eigenvalues --    1.28054   1.28245   1.28376   1.28497   1.28605
 Alpha virt. eigenvalues --    1.28830   1.29201   1.29526   1.29627   1.29837
 Alpha virt. eigenvalues --    1.29927   1.30019   1.30307   1.30465   1.30597
 Alpha virt. eigenvalues --    1.30829   1.30922   1.31403   1.31516   1.31593
 Alpha virt. eigenvalues --    1.31693   1.31922   1.32091   1.32129   1.32227
 Alpha virt. eigenvalues --    1.32286   1.32460   1.32833   1.32930   1.33116
 Alpha virt. eigenvalues --    1.33299   1.33591   1.33808   1.33995   1.34110
 Alpha virt. eigenvalues --    1.34271   1.34304   1.34644   1.34751   1.34909
 Alpha virt. eigenvalues --    1.34933   1.35193   1.35257   1.35370   1.35708
 Alpha virt. eigenvalues --    1.35916   1.36198   1.36275   1.36573   1.36742
 Alpha virt. eigenvalues --    1.36839   1.36887   1.37050   1.37404   1.37563
 Alpha virt. eigenvalues --    1.37888   1.37979   1.38120   1.38192   1.38449
 Alpha virt. eigenvalues --    1.38515   1.38733   1.38952   1.39200   1.39423
 Alpha virt. eigenvalues --    1.39763   1.39874   1.39971   1.40290   1.40410
 Alpha virt. eigenvalues --    1.40450   1.40808   1.41110   1.41320   1.41430
 Alpha virt. eigenvalues --    1.41677   1.41881   1.42080   1.42391   1.42461
 Alpha virt. eigenvalues --    1.42622   1.42981   1.42997   1.43139   1.43428
 Alpha virt. eigenvalues --    1.43818   1.44037   1.44164   1.44502   1.44539
 Alpha virt. eigenvalues --    1.44822   1.44925   1.45312   1.45493   1.45601
 Alpha virt. eigenvalues --    1.45876   1.46109   1.46184   1.46280   1.46348
 Alpha virt. eigenvalues --    1.46671   1.47014   1.47133   1.47482   1.47570
 Alpha virt. eigenvalues --    1.47854   1.48148   1.48340   1.48458   1.48590
 Alpha virt. eigenvalues --    1.48917   1.49329   1.49379   1.49623   1.50031
 Alpha virt. eigenvalues --    1.50588   1.50770   1.51033   1.51424   1.51478
 Alpha virt. eigenvalues --    1.51803   1.51920   1.52287   1.52471   1.52615
 Alpha virt. eigenvalues --    1.52885   1.53168   1.53228   1.53520   1.53865
 Alpha virt. eigenvalues --    1.54032   1.54162   1.54628   1.54687   1.54824
 Alpha virt. eigenvalues --    1.55149   1.55294   1.55611   1.55821   1.55962
 Alpha virt. eigenvalues --    1.56248   1.56491   1.56617   1.56738   1.56897
 Alpha virt. eigenvalues --    1.57294   1.57342   1.57657   1.57904   1.58158
 Alpha virt. eigenvalues --    1.58322   1.58774   1.58896   1.58947   1.59471
 Alpha virt. eigenvalues --    1.59723   1.59871   1.60172   1.60528   1.60716
 Alpha virt. eigenvalues --    1.61182   1.61311   1.61427   1.61568   1.61786
 Alpha virt. eigenvalues --    1.61922   1.62190   1.62460   1.62544   1.62659
 Alpha virt. eigenvalues --    1.63104   1.63391   1.63522   1.63762   1.63947
 Alpha virt. eigenvalues --    1.64107   1.64198   1.64455   1.64561   1.65027
 Alpha virt. eigenvalues --    1.65166   1.65265   1.65516   1.65774   1.66047
 Alpha virt. eigenvalues --    1.66140   1.66457   1.66619   1.66736   1.66920
 Alpha virt. eigenvalues --    1.67153   1.67542   1.67616   1.67734   1.68273
 Alpha virt. eigenvalues --    1.68306   1.68488   1.68884   1.69264   1.69406
 Alpha virt. eigenvalues --    1.69653   1.69736   1.70026   1.70489   1.70556
 Alpha virt. eigenvalues --    1.70949   1.71144   1.71480   1.71781   1.72095
 Alpha virt. eigenvalues --    1.72335   1.72472   1.72718   1.72887   1.72945
 Alpha virt. eigenvalues --    1.73087   1.73424   1.73605   1.74162   1.74310
 Alpha virt. eigenvalues --    1.74496   1.74753   1.74988   1.75115   1.75247
 Alpha virt. eigenvalues --    1.75284   1.75746   1.76138   1.76271   1.76360
 Alpha virt. eigenvalues --    1.76462   1.76896   1.77093   1.77165   1.77596
 Alpha virt. eigenvalues --    1.78065   1.78334   1.78583   1.78595   1.78829
 Alpha virt. eigenvalues --    1.79067   1.79331   1.79605   1.79819   1.80549
 Alpha virt. eigenvalues --    1.80635   1.80876   1.80959   1.81298   1.81795
 Alpha virt. eigenvalues --    1.81905   1.82221   1.82272   1.82497   1.82806
 Alpha virt. eigenvalues --    1.83149   1.83418   1.83848   1.83960   1.84158
 Alpha virt. eigenvalues --    1.84321   1.84477   1.84671   1.84788   1.85354
 Alpha virt. eigenvalues --    1.85422   1.85711   1.85771   1.86037   1.86302
 Alpha virt. eigenvalues --    1.86705   1.86721   1.86956   1.87164   1.87376
 Alpha virt. eigenvalues --    1.87574   1.88247   1.88473   1.88564   1.89256
 Alpha virt. eigenvalues --    1.89444   1.89813   1.90205   1.90593   1.90689
 Alpha virt. eigenvalues --    1.90912   1.91390   1.91570   1.91813   1.92395
 Alpha virt. eigenvalues --    1.92462   1.92798   1.92914   1.93330   1.93447
 Alpha virt. eigenvalues --    1.93835   1.94161   1.94512   1.94734   1.94944
 Alpha virt. eigenvalues --    1.95291   1.95520   1.95602   1.95844   1.96283
 Alpha virt. eigenvalues --    1.96689   1.96933   1.97198   1.97335   1.97708
 Alpha virt. eigenvalues --    1.97923   1.98188   1.98340   1.98571   1.98739
 Alpha virt. eigenvalues --    1.99227   1.99535   1.99730   1.99903   2.00640
 Alpha virt. eigenvalues --    2.00693   2.01205   2.01338   2.01494   2.01733
 Alpha virt. eigenvalues --    2.01808   2.02358   2.02692   2.02766   2.02860
 Alpha virt. eigenvalues --    2.03208   2.03425   2.03884   2.04185   2.04297
 Alpha virt. eigenvalues --    2.04527   2.05107   2.05302   2.05545   2.05840
 Alpha virt. eigenvalues --    2.06015   2.06340   2.06650   2.06828   2.07193
 Alpha virt. eigenvalues --    2.07336   2.07505   2.07839   2.07972   2.08255
 Alpha virt. eigenvalues --    2.08473   2.08838   2.08987   2.09245   2.09521
 Alpha virt. eigenvalues --    2.09965   2.10016   2.10163   2.10302   2.10581
 Alpha virt. eigenvalues --    2.10752   2.11168   2.11260   2.11404   2.11904
 Alpha virt. eigenvalues --    2.12229   2.12380   2.12497   2.12729   2.12955
 Alpha virt. eigenvalues --    2.13209   2.13543   2.13697   2.13888   2.14111
 Alpha virt. eigenvalues --    2.14243   2.14612   2.14874   2.15035   2.15513
 Alpha virt. eigenvalues --    2.16022   2.16174   2.16525   2.16658   2.16879
 Alpha virt. eigenvalues --    2.17035   2.17635   2.18595   2.18729   2.18882
 Alpha virt. eigenvalues --    2.19166   2.19266   2.19845   2.20237   2.20620
 Alpha virt. eigenvalues --    2.20942   2.21201   2.21475   2.21901   2.21997
 Alpha virt. eigenvalues --    2.22793   2.22978   2.23258   2.23489   2.24011
 Alpha virt. eigenvalues --    2.24210   2.24551   2.24645   2.24981   2.25421
 Alpha virt. eigenvalues --    2.25735   2.26135   2.26233   2.26682   2.26939
 Alpha virt. eigenvalues --    2.27616   2.27821   2.28232   2.28297   2.28598
 Alpha virt. eigenvalues --    2.28791   2.28972   2.29241   2.29566   2.29766
 Alpha virt. eigenvalues --    2.29925   2.30215   2.30416   2.31292   2.31413
 Alpha virt. eigenvalues --    2.31704   2.31861   2.31988   2.32540   2.32816
 Alpha virt. eigenvalues --    2.33075   2.33112   2.33420   2.33531   2.33900
 Alpha virt. eigenvalues --    2.33915   2.34516   2.34963   2.35027   2.35658
 Alpha virt. eigenvalues --    2.35794   2.36039   2.36226   2.36490   2.36736
 Alpha virt. eigenvalues --    2.37020   2.37205   2.37596   2.37791   2.38061
 Alpha virt. eigenvalues --    2.38306   2.38400   2.38664   2.38936   2.39546
 Alpha virt. eigenvalues --    2.39642   2.39926   2.40072   2.40282   2.40545
 Alpha virt. eigenvalues --    2.40867   2.41142   2.41208   2.41583   2.41935
 Alpha virt. eigenvalues --    2.42259   2.42514   2.42632   2.42928   2.43067
 Alpha virt. eigenvalues --    2.43171   2.43621   2.43946   2.44447   2.44806
 Alpha virt. eigenvalues --    2.45038   2.45531   2.45811   2.45995   2.46693
 Alpha virt. eigenvalues --    2.46986   2.47316   2.47464   2.48144   2.48225
 Alpha virt. eigenvalues --    2.48777   2.48872   2.49313   2.49796   2.50217
 Alpha virt. eigenvalues --    2.50954   2.51666   2.51874   2.52156   2.52296
 Alpha virt. eigenvalues --    2.52688   2.53042   2.53331   2.53667   2.53853
 Alpha virt. eigenvalues --    2.54115   2.54525   2.54750   2.55460   2.55934
 Alpha virt. eigenvalues --    2.56523   2.56603   2.57096   2.57271   2.57509
 Alpha virt. eigenvalues --    2.57651   2.58070   2.58333   2.58977   2.59201
 Alpha virt. eigenvalues --    2.59420   2.59662   2.59871   2.60129   2.60413
 Alpha virt. eigenvalues --    2.60670   2.61104   2.61328   2.61693   2.62022
 Alpha virt. eigenvalues --    2.62369   2.62651   2.62923   2.63077   2.63586
 Alpha virt. eigenvalues --    2.63618   2.63870   2.64259   2.64618   2.64724
 Alpha virt. eigenvalues --    2.65029   2.65726   2.65899   2.66273   2.66421
 Alpha virt. eigenvalues --    2.66806   2.66896   2.67018   2.67616   2.67990
 Alpha virt. eigenvalues --    2.68066   2.68423   2.68752   2.69014   2.69027
 Alpha virt. eigenvalues --    2.69397   2.69782   2.70176   2.70393   2.70857
 Alpha virt. eigenvalues --    2.70911   2.71011   2.71418   2.71700   2.71979
 Alpha virt. eigenvalues --    2.72090   2.72165   2.72535   2.72782   2.73047
 Alpha virt. eigenvalues --    2.73206   2.73251   2.73742   2.73803   2.73909
 Alpha virt. eigenvalues --    2.74155   2.74272   2.74478   2.74857   2.75163
 Alpha virt. eigenvalues --    2.75274   2.75517   2.75719   2.76314   2.76635
 Alpha virt. eigenvalues --    2.76970   2.77210   2.77332   2.77647   2.77711
 Alpha virt. eigenvalues --    2.77883   2.78251   2.78530   2.78664   2.78736
 Alpha virt. eigenvalues --    2.78977   2.79242   2.79375   2.79726   2.79937
 Alpha virt. eigenvalues --    2.80022   2.80423   2.80453   2.80840   2.80902
 Alpha virt. eigenvalues --    2.80956   2.81206   2.81398   2.81511   2.81604
 Alpha virt. eigenvalues --    2.82106   2.82326   2.82549   2.82614   2.82719
 Alpha virt. eigenvalues --    2.82980   2.83466   2.83541   2.83791   2.84072
 Alpha virt. eigenvalues --    2.84123   2.84510   2.84682   2.84906   2.85277
 Alpha virt. eigenvalues --    2.85408   2.85671   2.85696   2.86131   2.86330
 Alpha virt. eigenvalues --    2.86725   2.86914   2.87167   2.87331   2.87515
 Alpha virt. eigenvalues --    2.87743   2.88094   2.88372   2.88431   2.88717
 Alpha virt. eigenvalues --    2.89084   2.89216   2.89399   2.89439   2.89840
 Alpha virt. eigenvalues --    2.90144   2.90407   2.90685   2.90778   2.91094
 Alpha virt. eigenvalues --    2.91139   2.91234   2.91557   2.91659   2.91871
 Alpha virt. eigenvalues --    2.91911   2.92371   2.92688   2.92801   2.93135
 Alpha virt. eigenvalues --    2.93317   2.93459   2.93716   2.93883   2.94022
 Alpha virt. eigenvalues --    2.94234   2.94474   2.94821   2.94972   2.95052
 Alpha virt. eigenvalues --    2.95325   2.95538   2.95695   2.95818   2.96101
 Alpha virt. eigenvalues --    2.96205   2.96444   2.96691   2.96816   2.96960
 Alpha virt. eigenvalues --    2.97026   2.97168   2.97389   2.97435   2.97779
 Alpha virt. eigenvalues --    2.97855   2.98185   2.98222   2.98360   2.98586
 Alpha virt. eigenvalues --    2.98787   2.99042   2.99171   2.99310   2.99584
 Alpha virt. eigenvalues --    2.99868   3.00054   3.00204   3.00451   3.00519
 Alpha virt. eigenvalues --    3.00781   3.00817   3.01143   3.01277   3.01366
 Alpha virt. eigenvalues --    3.01481   3.01734   3.01882   3.01978   3.02077
 Alpha virt. eigenvalues --    3.02230   3.02416   3.02616   3.02764   3.02897
 Alpha virt. eigenvalues --    3.03012   3.03084   3.03286   3.03346   3.03499
 Alpha virt. eigenvalues --    3.03608   3.03767   3.03981   3.04075   3.04241
 Alpha virt. eigenvalues --    3.04321   3.04437   3.04708   3.04897   3.05314
[...]
 Alpha virt. eigenvalues --    4.52982   4.53247   4.53612   4.53977   4.54524
 Alpha virt. eigenvalues --    4.54792   4.54949   4.55374   4.55594   4.56063
 Alpha virt. eigenvalues --    4.56259   4.56799   4.56953   4.57298   4.57732
 Alpha virt. eigenvalues --    4.58651   4.59342   4.59656   4.59873   4.60375
 Alpha virt. eigenvalues --    4.60827   4.61267   4.62034   4.62294   4.63195
 Alpha virt. eigenvalues --    4.63288   4.63835   4.63979   4.64532   4.64609
 Alpha virt. eigenvalues --    4.64692   4.65060   4.65092   4.65312   4.65376
 Alpha virt. eigenvalues --    4.65578   4.65770   4.66108   4.66400   4.66783
 Alpha virt. eigenvalues --    4.67243   4.67457   4.67878   4.68244   4.68860
 Alpha virt. eigenvalues --    4.69010   4.69103   4.69794   4.70140   4.70392
 Alpha virt. eigenvalues --    4.70563   4.70778   4.70919   4.71312   4.71772
 Alpha virt. eigenvalues --    4.72062   4.72205   4.72480   4.72920   4.73331
 Alpha virt. eigenvalues --    4.73846   4.74368   4.74608   4.74718   4.75328
 Alpha virt. eigenvalues --    4.75581   4.75818   4.75939   4.76046   4.76349
 Alpha virt. eigenvalues --    4.76431   4.76870   4.77277   4.77658   4.77791
 Alpha virt. eigenvalues --    4.78678   4.78976   4.79095   4.79520   4.79739
 Alpha virt. eigenvalues --    4.79867   4.80129   4.80213   4.80783   4.81106
 Alpha virt. eigenvalues --    4.81387   4.81977   4.82971   4.83492   4.84171
 Alpha virt. eigenvalues --    4.84285   4.84527   4.84836   4.85352   4.85723
 Alpha virt. eigenvalues --    4.86247   4.86518   4.86997   4.87723   4.88532
 Alpha virt. eigenvalues --    4.88851   4.89016   4.89342   4.89836   4.90066
 Alpha virt. eigenvalues --    4.90629   4.91265   4.91687   4.91884   4.92153
 Alpha virt. eigenvalues --    4.92182   4.93204   4.93262   4.93793   4.93945
 Alpha virt. eigenvalues --    4.94223   4.94317   4.94958   4.96052   4.96545
 Alpha virt. eigenvalues --    4.97626   4.97817   4.98249   4.98711   4.99364
 Alpha virt. eigenvalues --    4.99841   5.00299   5.00497   5.01087   5.01433
 Alpha virt. eigenvalues --    5.02035   5.02141   5.02365   5.02996   5.03695
 Alpha virt. eigenvalues --    5.04160   5.04405   5.05016   5.05038   5.05754
 Alpha virt. eigenvalues --    5.06243   5.06837   5.07756   5.08200   5.08604
 Alpha virt. eigenvalues --    5.09537   5.09623   5.10353   5.10712   5.11045
 Alpha virt. eigenvalues --    5.11112   5.11625   5.11878   5.12045   5.12404
 Alpha virt. eigenvalues --    5.12478   5.12998   5.13392   5.13908   5.14280
 Alpha virt. eigenvalues --    5.14739   5.14935   5.15084   5.15311   5.15497
 Alpha virt. eigenvalues --    5.15812   5.16356   5.16488   5.17218   5.17485
 Alpha virt. eigenvalues --    5.17914   5.17948   5.18169   5.18591   5.18897
 Alpha virt. eigenvalues --    5.19323   5.19373   5.19614   5.19908   5.20455
 Alpha virt. eigenvalues --    5.21065   5.21401   5.21570   5.21887   5.22214
 Alpha virt. eigenvalues --    5.22378   5.22462   5.22997   5.23193   5.23503
 Alpha virt. eigenvalues --    5.23835   5.24115   5.24480   5.24906   5.25419
 Alpha virt. eigenvalues --    5.26017   5.26127   5.26750   5.26919   5.27039
 Alpha virt. eigenvalues --    5.27653   5.27691   5.28231   5.28684   5.29021
 Alpha virt. eigenvalues --    5.29669   5.29754   5.30043   5.30196   5.30545
 Alpha virt. eigenvalues --    5.31144   5.31422   5.31559   5.32634   5.33101
 Alpha virt. eigenvalues --    5.33400   5.33705   5.34010   5.34194   5.34376
 Alpha virt. eigenvalues --    5.34426   5.34675   5.35050   5.35256   5.35566
 Alpha virt. eigenvalues --    5.35828   5.36194   5.36399   5.36716   5.37106
 Alpha virt. eigenvalues --    5.37287   5.37513   5.37683   5.37992   5.38647
 Alpha virt. eigenvalues --    5.39320   5.39563   5.39814   5.40199   5.41319
 Alpha virt. eigenvalues --    5.41711   5.42265   5.42387   5.43162   5.43696
 Alpha virt. eigenvalues --    5.44709   5.44811   5.45293   5.45708   5.46054
 Alpha virt. eigenvalues --    5.46283   5.46837   5.47573   5.48085   5.48195
 Alpha virt. eigenvalues --    5.48433   5.48853   5.50354   5.50704   5.50896
 Alpha virt. eigenvalues --    5.51125   5.51708   5.52127   5.52499   5.53169
 Alpha virt. eigenvalues --    5.53975   5.54269   5.54782   5.55347   5.56313
 Alpha virt. eigenvalues --    5.56609   5.56981   5.57426   5.57687   5.57747
 Alpha virt. eigenvalues --    5.58348   5.58941   5.59355   5.59476   5.59730
 Alpha virt. eigenvalues --    5.60280   5.61379   5.62172   5.62383   5.62509
 Alpha virt. eigenvalues --    5.62783   5.63167   5.63702   5.64154   5.64419
 Alpha virt. eigenvalues --    5.64678   5.64925   5.65262   5.65501   5.66566
 Alpha virt. eigenvalues --    5.67212   5.67580   5.69005   5.69600   5.70115
 Alpha virt. eigenvalues --    5.70852   5.71081   5.71540   5.71651   5.72257
 Alpha virt. eigenvalues --    5.73168   5.73525   5.74385   5.74726   5.75113
 Alpha virt. eigenvalues --    5.76133   5.76304   5.76756   5.77307   5.78439
 Alpha virt. eigenvalues --    5.78792   5.80324   5.81177   5.81629   5.81892
 Alpha virt. eigenvalues --    5.82455   5.82990   5.85165   5.85956   5.86693
 Alpha virt. eigenvalues --    5.88282   5.88784   5.89910   5.90669   5.91151
 Alpha virt. eigenvalues --    5.94787   5.94925   5.95764   5.96089   5.97993
 Alpha virt. eigenvalues --    6.00318   6.00957   6.01575   6.02186   6.03775
 Alpha virt. eigenvalues --    6.04736   6.05076   6.05683   6.06333   6.06964
 Alpha virt. eigenvalues --    6.08965   6.10517   6.11325   6.12558   6.14191
 Alpha virt. eigenvalues --    6.14977   6.15414   6.16132   6.20433   6.22397
 Alpha virt. eigenvalues --    6.22911   6.24795   6.28501   6.34691   6.37541
 Alpha virt. eigenvalues --    6.40213   6.42105   6.42522   6.44010   6.45980
 Alpha virt. eigenvalues --    6.50187   6.50931   6.53222   6.54880   6.56005
 Alpha virt. eigenvalues --    6.56662   6.56970   6.63533   6.68384   6.68972
 Alpha virt. eigenvalues --    6.70596   6.73040   6.74366   6.75839   6.77060
 Alpha virt. eigenvalues --    6.78288   6.78533   6.78790   6.79851   6.82086
 Alpha virt. eigenvalues --    6.82258   6.82538   6.82783   6.83227   6.83387
 Alpha virt. eigenvalues --    6.83587   6.84212   6.84316   6.84382   6.84639
 Alpha virt. eigenvalues --    6.84678   6.85494   6.85516   6.85985   6.86110
 Alpha virt. eigenvalues --    6.86230   6.86623   6.86719   6.87214   6.88573
 Alpha virt. eigenvalues --    6.88959   6.94946   6.95026   6.96740   6.96948
 Alpha virt. eigenvalues --    6.97357   6.97680   6.99156   7.00572   7.00919
 Alpha virt. eigenvalues --    7.01291   7.03709   7.04180   7.05070   7.05262
 Alpha virt. eigenvalues --    7.07739   7.08442   7.09018   7.09122   7.09777
 Alpha virt. eigenvalues --    7.11872   7.12983   7.13021   7.18838   7.22096
 Alpha virt. eigenvalues --    7.26213   7.35960   7.36233   7.36290   7.36375
 Alpha virt. eigenvalues --    7.37469   7.43313   7.43598   7.44062   7.47145
 Alpha virt. eigenvalues --    7.48284   7.48566   7.51211   7.55377   7.58722
 Alpha virt. eigenvalues --    7.58752   7.62487   7.62543   7.65635   7.83144
 Alpha virt. eigenvalues --    7.85130   7.91043   7.97185   8.27727   8.27768
 Alpha virt. eigenvalues --    8.30034   8.30145   8.30995   8.31042   8.38208
 Alpha virt. eigenvalues --    8.45034   8.45093   8.49065   8.49469   8.57418
 Alpha virt. eigenvalues --    8.57514   8.57759   8.67311   8.67450   8.75024
 Alpha virt. eigenvalues --    8.75272   8.78346   8.78378   8.78510   8.89609
 Alpha virt. eigenvalues --    8.89664   8.95124   8.95338   8.99291   9.00988
 Alpha virt. eigenvalues --    9.02905   9.03982   9.05304   9.09747   9.11055
 Alpha virt. eigenvalues --    9.15929   9.16652   9.17279   9.49469   9.51239
 Alpha virt. eigenvalues --    9.71783   9.75531  10.17507  10.22186  22.56040
 Alpha virt. eigenvalues --   22.63514  22.68171  22.70192  22.71075  22.80475
 Alpha virt. eigenvalues --   22.88178  22.88392  22.92619  22.93723  22.95076
 Alpha virt. eigenvalues --   23.00049  23.02145  23.04670  23.05144  23.07504
 Alpha virt. eigenvalues --   23.08790  23.09596  23.10203  23.10997  23.13065
 Alpha virt. eigenvalues --   23.13341  23.15169  23.16067  23.17804  23.18361
 Alpha virt. eigenvalues --   23.20262  23.20615  23.20998  23.21149  23.21673
 Alpha virt. eigenvalues --   23.23937  23.24835  23.25714  23.25787  23.28623
 Alpha virt. eigenvalues --   23.29049  23.31020  23.31450  23.32269  23.34521
 Alpha virt. eigenvalues --   23.35298  23.41094  23.41737  23.43179  23.47450
 Alpha virt. eigenvalues --   23.49593  23.54956  23.55248  23.57869  23.61556
 Alpha virt. eigenvalues --   23.75607  23.81240  23.81664  23.91130  24.12370
 Alpha virt. eigenvalues --   24.13446  24.16168  24.23657  24.29940  24.38847
 Alpha virt. eigenvalues --   24.49203  32.71097  33.00626  33.27840  43.95264
 Alpha virt. eigenvalues --   44.06945  44.17545  44.23543  44.35908  57.12370
 Alpha virt. eigenvalues --   57.15146  57.23813  57.24028  57.48382  57.49368
 Alpha virt. eigenvalues --   57.54134
          Condensed to atoms (all electrons):
 Mulliken charges:
               1
     1  C    0.205012
     2  C   -0.227934
     3  C    0.010580
     4  C   -0.195404
     5  C    0.233290
     6  N   -0.311314
     7  H    0.133293
     8  C   -0.125716
     9  C    0.202117
    10  C   -0.158249
    11  C   -0.223730
    12  C   -0.130138
    13  H    0.155675
    14  H    0.152887
    15  H    0.141568
    16  C    0.316414
    17  C    0.035342
    18  C   -0.224104
    19  C   -0.214294
    20  C   -0.164263
    21  H    0.152782
    22  C   -0.154830
    23  H    0.148306
    24  C   -0.151903
    25  H    0.147124
    26  H    0.147537
    27  H    0.148157
    28  F   -0.228229
    29  C   -0.282393
    30  H    0.092303
    31  H    0.104640
    32  H    0.113578
    33  C   -0.043766
    34  C   -0.062084
    35  C    0.042778
    36  H    0.084891
    37  H    0.076479
    38  C    0.025932
    39  H    0.083875
    40  H    0.083179
    41  H    0.063563
    42  H    0.093143
    43  H    0.052877
    44  H    0.094072
    45  N   -0.122897
    46  O   -0.348509
    47  H    0.204187
    48  C   -0.130803
    49  C   -0.184588
    50  C   -0.035388
    51  C   -0.054889
    52  C   -0.130009
    53  C   -0.132462
    54  H    0.157758
    55  H    0.165228
    56  C    0.085609
    57  C   -0.098186
    58  H    0.150591
    59  H    0.157108
    60  C   -0.057997
    61  C   -0.080785
    62  H    0.150000
    63  C    0.017060
    64  C   -0.040107
    65  C    0.004779
    66  C   -0.182580
    67  C   -0.052055
    68  C   -0.175971
    69  C   -0.071612
    70  C   -0.135811
    71  C   -0.136158
    72  H    0.161570
    73  H    0.149061
    74  C   -0.130161
    75  H    0.150004
    76  H    0.157219
    77  H    0.156449
    78  S    0.894986
    79  O   -0.476589
    80  O   -0.502428
    81  S    0.867233
    82  O   -0.453935
    83  O   -0.486882
    84  N   -0.285503
    85  C    0.107024
    86  C    0.234343
    87  C    0.109565
    88  C    0.267760
    89  C   -0.125249
    90  C   -0.175006
    91  C   -0.177591
    92  C   -0.089881
    93  C   -0.145982
    94  H    0.161735
    95  C   -0.136911
    96  H    0.161452
    97  H    0.159864
    98  H    0.161480
    99  C   -0.098275
   100  C   -0.253706
   101  C   -0.175288
   102  C   -0.111184
   103  H    0.161735
   104  C   -0.077834
   105  C   -0.146928
   106  H    0.161149
   107  H    0.161420
   108  H    0.161224
   109  C    0.557245
   110  F   -0.184335
   111  F   -0.187858
   112  F   -0.185322
   113  C    0.566472
   114  F   -0.188839
   115  F   -0.188229
   116  F   -0.182578
   117  H    0.132950
 Sum of Mulliken charges =  -0.00000
 Mulliken charges with hydrogens summed into heavy atoms:
               1
     1  C    0.205012
     2  C   -0.094984
     3  C    0.010580
     4  C   -0.062111
     5  C    0.233290
     6  N   -0.311314
     8  C   -0.125716
     9  C    0.202117
    10  C   -0.002574
    11  C   -0.082162
    12  C    0.022749
    16  C    0.316414
    17  C    0.035342
    18  C   -0.071323
    19  C   -0.065989
    20  C   -0.017139
    22  C   -0.007293
    24  C   -0.003746
    28  F   -0.228229
    29  C    0.028129
    33  C    0.117605
    34  C    0.104970
    35  C    0.199484
    38  C    0.172880
    45  N   -0.122897
    46  O   -0.348509
    48  C    0.026955
    49  C   -0.019360
    50  C   -0.035388
    51  C   -0.054889
    52  C    0.020581
    53  C    0.024646
    56  C    0.085609
    57  C    0.051813
    60  C   -0.057997
    61  C   -0.080785
    63  C    0.017060
    64  C   -0.040107
    65  C    0.004779
    66  C   -0.182580
    67  C   -0.052055
    68  C   -0.014401
    69  C    0.077449
    70  C    0.014193
    71  C    0.021061
    74  C    0.026288
    78  S    0.894986
    79  O   -0.476589
    80  O   -0.502428
    81  S    0.867233
    82  O   -0.453935
    83  O   -0.486882
    84  N   -0.081316
    85  C    0.107024
    86  C    0.234343
    87  C    0.109565
    88  C    0.267760
    89  C   -0.125249
    90  C   -0.175006
    91  C   -0.015856
    92  C    0.071571
    93  C    0.013882
    95  C    0.024568
    99  C   -0.098275
   100  C   -0.091971
   101  C   -0.175288
   102  C    0.049966
   104  C    0.083586
   105  C    0.014296
   109  C    0.557245
   110  F   -0.184335
   111  F   -0.187858
   112  F   -0.185322
   113  C    0.566472
   114  F   -0.188839
   115  F   -0.188229
   116  F   -0.182578
 Electronic spatial extent (au):  <R**2>=          59215.3249
 Charge=              0.0000 electrons
 Dipole moment (field-independent basis, Debye):
    X=             -1.5423    Y=              0.2867    Z=              0.3415  Tot=              1.6055
 Quadrupole moment (field-independent basis, Debye-Ang):
   XX=           -400.7157   YY=           -385.7639   ZZ=           -449.7656
   XY=             12.9121   XZ=             24.5210   YZ=             11.6617
 Traceless Quadrupole moment (field-independent basis, Debye-Ang):
   XX=             11.3661   YY=             26.3178   ZZ=            -37.6839
   XY=             12.9121   XZ=             24.5210   YZ=             11.6617
 Octapole moment (field-independent basis, Debye-Ang**2):
  XXX=             66.8790  YYY=            259.0444  ZZZ=            -56.2262  XYY=             41.7695
  XXY=           -271.2771  XXZ=            -97.7955  XZZ=            -36.0974  YZZ=            -15.6588
  YYZ=              0.8580  XYZ=           -137.2847
 Hexadecapole moment (field-independent basis, Debye-Ang**3):
 XXXX=         -41777.7326 YYYY=         -22301.1022 ZZZZ=          -9869.4294 XXXY=            217.2695
 XXXZ=           1086.2139 YYYX=           1077.2193 YYYZ=           -302.2743 ZZZX=            307.2193
 ZZZY=           -191.3699 XXYY=         -10224.3793 XXZZ=          -8796.7299 YYZZ=          -4991.8203
 XXYZ=             87.8689 YYXZ=           -213.8226 ZZXY=            352.4389
 N-N= 1.468032469108D+04 E-N=-3.955824925465D+04  KE= 4.328927713156D+03
 Leave Link  601 at Wed Feb  5 12:50:31 2025, MaxMem=  6442450944 cpu:              20.0 elap:               1.1
 (Enter /ihome/crc/install/gaussian/c01/avx2/tar/g16/l9999.exe)
 Unable to Open any file for archive entry.
 1\1\GINC-SMP-N254\SP\RB3LYP\def2TZVPP\C60H40F7N3O5S2\BIM12\05-Feb-2025
 \0\\#p b3lyp def2tzvpp scf=maxcycle=128 nosymm scrf=(smd,solvent=propy
 lethanoate) empiricaldispersion=gd3bj\\alkyneCF3_S-ax-R_00_pre_3\\0,1\
 C,0,-0.709542,-2.994622,-0.974196\C,0,-1.566169,-3.66916,-1.829714\C,0
 ,-2.945777,-3.620326,-1.564853\C,0,-3.391341,-2.892141,-0.469405\C,0,-
 2.455295,-2.207399,0.342915\N,0,-1.146429,-2.280324,0.071523\H,0,-4.45
 5369,-2.868292,-0.24105\C,0,0.772144,-2.984617,-1.15337\C,0,1.650478,-
 3.36955,-0.117986\C,0,3.027358,-3.176251,-0.28507\C,0,2.681974,-2.2279
 38,-2.480428\C,0,3.53776,-2.607423,-1.449825\H,0,3.706896,-3.485458,0.
 511264\H,0,4.612296,-2.453331,-1.557975\H,0,3.043939,-1.763921,-3.3983
 1\C,0,1.320462,-2.43279,-2.312063\C,0,1.141959,-3.979799,1.143141\C,0,
 1.601338,-3.5178,2.383882\C,0,0.211337,-5.029168,1.116757\C,0,1.128875
 ,-4.081059,3.569796\H,0,2.304686,-2.684875,2.412308\C,0,-0.257632,-5.5
 9238,2.301114\H,0,-0.144518,-5.408804,0.156813\C,0,0.196919,-5.117568,
 3.533177\H,0,1.486827,-3.700034,4.528054\H,0,-0.980182,-6.409584,2.261
 805\H,0,-0.174534,-5.556021,4.461106\F,0,0.492694,-2.036793,-3.286081\
 C,0,-3.906415,-4.373679,-2.439762\H,0,-4.949368,-4.179209,-2.158425\H,
 0,-3.764177,-4.096869,-3.49483\H,0,-3.720364,-5.455949,-2.363096\C,0,-
 1.92491,-1.314615,2.561983\C,0,-4.232942,-1.33809,1.78405\C,0,-2.26132
 4,-0.06766,3.355924\H,0,-0.885357,-1.273854,2.224357\H,0,-2.032366,-2.
 203295,3.214557\C,0,-4.463135,-0.115827,2.662927\H,0,-4.84583,-1.22064
 3,0.881265\H,0,-4.563296,-2.252739,2.315368\H,0,-2.066997,0.826856,2.7
 34488\H,0,-1.63043,-0.01021,4.252509\H,0,-4.317003,0.794777,2.050902\H
 ,0,-5.496353,-0.120422,3.034755\N,0,-2.828639,-1.437135,1.419032\O,0,-
 3.606611,-0.091616,3.774607\H,0,-0.178795,-0.944512,0.180306\C,0,1.531
 315,6.332086,-1.540374\C,0,0.968164,5.269651,-0.875158\C,0,1.763224,4.
 153877,-0.488178\C,0,3.144609,4.150682,-0.837032\C,0,3.700765,5.268199
 ,-1.519277\C,0,2.912176,6.338524,-1.85856\H,0,0.906985,7.177989,-1.831
 593\H,0,-0.098156,5.280522,-0.650539\C,0,1.223335,3.022857,0.208564\C,
 0,3.941673,3.02324,-0.532967\H,0,4.762385,5.248728,-1.772076\H,0,3.342
 058,7.192439,-2.384224\C,0,3.42008,1.915465,0.107799\C,0,2.042032,1.94
 4429,0.495342\H,0,4.991655,3.017808,-0.829862\C,0,-0.248173,3.021503,0
 .510615\C,0,-1.119841,2.174983,-0.153141\C,0,-0.751039,3.922843,1.5035
 28\C,0,-2.53309,2.220735,0.081637\C,0,-2.15509,3.978639,1.735853\C,0,0
 .104451,4.74729,2.285338\C,0,-3.018541,3.13346,1.00068\C,0,-2.668178,4
 .873549,2.715375\C,0,-0.418888,5.595044,3.232037\H,0,1.183911,4.69639,
 2.139102\H,0,-4.095233,3.193251,1.17089\C,0,-1.818324,5.66629,3.445332
 \H,0,-3.746974,4.907659,2.877862\H,0,0.249528,6.216721,3.82946\H,0,-2.
 215728,6.347897,4.198835\S,0,1.276915,0.530252,1.23508\O,0,0.435725,0.
 984237,2.294629\O,0,2.218548,-0.490532,1.534634\S,0,-0.391228,0.903383
 ,-1.164954\O,0,0.574102,1.501767,-2.017069\O,0,-1.38279,0.057721,-1.72
 6462\N,0,0.364338,-0.028183,-0.025902\C,0,4.305906,0.806843,0.313421\C
 ,0,5.144942,-0.064032,0.407761\C,0,-3.487556,1.394651,-0.59559\C,0,-4.
 363256,0.750375,-1.1346\C,0,-5.326255,-0.041686,-1.839321\C,0,-6.69759
 4,-0.019468,-1.514004\C,0,-4.891764,-0.863638,-2.891583\C,0,-7.604427,
 -0.802633,-2.222204\C,0,-5.806192,-1.635957,-3.602671\H,0,-3.82868,-0.
 880502,-3.136737\C,0,-7.15983,-1.61118,-3.26819\H,0,-8.661829,-0.77478
 4,-1.959006\H,0,-5.457848,-2.26182,-4.425542\H,0,-7.875636,-2.217688,-
 3.824293\C,0,6.106278,-1.121665,0.509801\C,0,6.064372,-2.004813,1.5989
 94\C,0,7.093129,-1.310921,-0.480086\C,0,6.980756,-3.04934,1.695508\H,0
 ,5.30353,-1.859145,2.366597\C,0,8.005248,-2.356269,-0.378171\C,0,7.950
 583,-3.227044,0.71064\H,0,6.934836,-3.728761,2.547876\H,0,8.759568,-2.
 491713,-1.153305\H,0,8.667784,-4.045223,0.785585\C,0,7.13202,-0.391985
 ,-1.674431\F,0,8.139876,-0.687197,-2.496662\F,0,7.279083,0.88919,-1.32
 0245\F,0,6.005993,-0.466626,-2.394014\C,0,-7.18041,0.861857,-0.392041\
 F,0,-6.855563,2.143508,-0.583002\F,0,-6.647578,0.505315,0.786506\F,0,-
 8.504457,0.808466,-0.248495\H,0,-1.171845,-4.23468,-2.674822\\Version=
 ES64L-G16RevC.01\HF=-4347.8451561\RMSD=2.200e-09\Dipole=-0.6067877,0.1
 128066,0.1343684\Quadrupole=8.4504055,19.5666443,-28.0170498,9.5998015
 ,18.2307649,8.6702124\PG=C01 [X(C60H40F7N3O5S2)]\\@
 The archive entry for this job was punched.


 IF GOD HAD MEANT MAN TO SEE THE SUN RISE, HE
 WOULD HAVE SCHEDULED IT FOR A LATER HOUR.
 Job cpu time:       1 days  0 hours 11 minutes  8.1 seconds.
 Elapsed time:       0 days  0 hours 45 minutes 36.0 seconds.
 File lengths (MBytes):  RWF=   5653 Int=      0 D2E=      0 Chk=    509 Scr=      1
 Normal termination of Gaussian 16 at Wed Feb  5 12:50:32 2025.
