 Entering Gaussian System, Link 0=g16
 Initial command:
 /opt/packages/gaussian/g16RevC.01/g16/l1.exe "/local/Gau-7652.inp" -scrdir="/local/"
 Entering Link 1 = /opt/packages/gaussian/g16RevC.01/g16/l1.exe PID=      7653.
  
 Copyright (c) 1988-2019, Gaussian, Inc.  All Rights Reserved.
  
 This is part of the Gaussian(R) 16 program.  It is based on
 the Gaussian(R) 09 system (copyright 2009, Gaussian, Inc.),
 the Gaussian(R) 03 system (copyright 2003, Gaussian, Inc.),
 the Gaussian(R) 98 system (copyright 1998, Gaussian, Inc.),
 the Gaussian(R) 94 system (copyright 1995, Gaussian, Inc.),
 the Gaussian 92(TM) system (copyright 1992, Gaussian, Inc.),
 the Gaussian 90(TM) system (copyright 1990, Gaussian, Inc.),
 the Gaussian 88(TM) system (copyright 1988, Gaussian, Inc.),
 the Gaussian 86(TM) system (copyright 1986, Carnegie Mellon
 University), and the Gaussian 82(TM) system (copyright 1983,
 Carnegie Mellon University). Gaussian is a federally registered
 trademark of Gaussian, Inc.
  
 This software contains proprietary and confidential information,
 including trade secrets, belonging to Gaussian, Inc.
  
 This software is provided under written license and may be
 used, copied, transmitted, or stored only in accord with that
 written license.
  
 The following legend is applicable only to US Government
 contracts under FAR:
  
                    RESTRICTED RIGHTS LEGEND
  
 Use, reproduction and disclosure by the US Government is
 subject to restrictions as set forth in subparagraphs (a)
 and (c) of the Commercial Computer Software - Restricted
 Rights clause in FAR 52.227-19.
  
 Gaussian, Inc.
 340 Quinnipiac St., Bldg. 40, Wallingford CT 06492
  
  
 ---------------------------------------------------------------
 Warning -- This program may not be used in any manner that
 competes with the business of Gaussian, Inc. or will provide
 assistance to any competitor of Gaussian, Inc.  The licensee
 of this program is prohibited from giving any competitor of
 Gaussian, Inc. access to this program.  By using this program,
 the user acknowledges that Gaussian, Inc. is engaged in the
 business of creating and licensing software in the field of
 computational chemistry and represents and warrants to the
 licensee that it is not a competitor of Gaussian, Inc. and that
 it will not use this program in any manner prohibited above.
 ---------------------------------------------------------------
  

 Cite this work as:
 Gaussian 16, Revision C.01,
 M. J. Frisch, G. W. Trucks, H. B. Schlegel, G. E. Scuseria, 
 M. A. Robb, J. R. Cheeseman, G. Scalmani, V. Barone, 
 G. A. Petersson, H. Nakatsuji, X. Li, M. Caricato, A. V. Marenich, 
 J. Bloino, B. G. Janesko, R. Gomperts, B. Mennucci, H. P. Hratchian, 
 J. V. Ortiz, A. F. Izmaylov, J. L. Sonnenberg, D. Williams-Young, 
 F. Ding, F. Lipparini, F. Egidi, J. Goings, B. Peng, A. Petrone, 
 T. Henderson, D. Ranasinghe, V. G. Zakrzewski, J. Gao, N. Rega, 
 G. Zheng, W. Liang, M. Hada, M. Ehara, K. Toyota, R. Fukuda, 
 J. Hasegawa, M. Ishida, T. Nakajima, Y. Honda, O. Kitao, H. Nakai, 
 T. Vreven, K. Throssell, J. A. Montgomery, Jr., J. E. Peralta, 
 F. Ogliaro, M. J. Bearpark, J. J. Heyd, E. N. Brothers, K. N. Kudin, 
 V. N. Staroverov, T. A. Keith, R. Kobayashi, J. Normand, 
 K. Raghavachari, A. P. Rendell, J. C. Burant, S. S. Iyengar, 
 J. Tomasi, M. Cossi, J. M. Millam, M. Klene, C. Adamo, R. Cammi, 
 J. W. Ochterski, R. L. Martin, K. Morokuma, O. Farkas, 
 J. B. Foresman, and D. J. Fox, Gaussian, Inc., Wallingford CT, 2019.
 
 ******************************************
 Gaussian 16:  ES64L-G16RevC.01  3-Jul-2019
                 3-Feb-2025 
 ******************************************
 %nprocshared=32
 Will use up to   32 processors via shared memory.
 %mem=54GB
 ----------------------------------------------------------------------
 #p b3lyp def2tzvpp scf=maxcycle=128 nosymm scrf=(smd,solvent=propyleth
 anoate) empiricaldispersion=gd3bj
 ----------------------------------------------------------------------
 1/38=1,172=1/1;
 2/12=2,15=1,17=6,18=5,40=1/2;
 3/5=44,7=202,11=2,25=1,30=1,70=32201,72=169,74=-5,124=41/1,2,3;
 4//1;
 5/5=2,7=128,38=5,53=169/2;
 6/7=2,8=2,9=2,10=2,28=1/1;
 99/5=1,9=1/99;
 Leave Link    1 at Mon Feb  3 10:45:51 2025, MaxMem=  7247757312 cpu:               2.7 elap:               0.1
 (Enter /opt/packages/gaussian/g16RevC.01/g16/l101.exe)
 ---------------------------
 alkyneCF3_S-ax-R_00_comp_14
 ---------------------------
 Symbolic Z-matrix:
 Charge =  0 Multiplicity = 1
 C                    -0.10691  -2.84589  -1.35445 
 C                    -0.36305  -4.11217  -1.79843 
 C                    -1.41058  -4.85676  -1.19647 
 C                    -2.12188  -4.30078  -0.15861 
 C                    -1.84418  -2.98231   0.30144 
 N                    -0.8575   -2.30822  -0.34482 
 H                    -2.92943  -4.87041   0.29231 
 C                     0.99359  -2.00599  -1.90177 
 C                     2.24416  -1.8954   -1.2637 
 C                     3.22077  -1.06642  -1.82497 
 C                     1.75164  -0.49637  -3.65915 
 C                     2.96715  -0.3537   -2.99551 
 H                     4.18621  -0.97387  -1.32608 
 H                     3.73119   0.31197  -3.39929 
 H                     1.52467   0.03277  -4.58469 
 C                     0.79639  -1.33577  -3.10804 
 C                     2.56389  -2.70977  -0.05444 
 C                     1.91685  -2.5001    1.16981 
 C                     3.53403  -3.71716  -0.146 
 C                     2.21581  -3.30004   2.27284 
 H                     1.21316  -1.67341   1.26683 
 C                     3.82736  -4.5206    0.95553 
 H                     4.05081  -3.87781  -1.09491 
 C                     3.16262  -4.31946   2.16559 
 H                     1.71326  -3.11661   3.22515 
 H                     4.57894  -5.30737   0.86646 
 H                     3.39176  -4.94794   3.0283 
 F                    -0.35402  -1.52541  -3.7614 
 C                    -1.72676  -6.22704  -1.71023 
 H                    -2.58933  -6.66698  -1.19505 
 H                    -1.93611  -6.1844   -2.78965 
 H                    -0.85698  -6.88806  -1.57725 
 C                    -3.25715  -3.18695   2.3036 
 C                    -2.22613  -1.07055   1.84398 
 C                    -2.40743  -3.28525   3.56595 
 H                    -3.51918  -4.17998   1.93145 
 H                    -4.18867  -2.6518    2.52919 
 C                    -1.42575  -1.20484   3.13485 
 H                    -1.70623  -0.43614   1.12087 
 H                    -3.19428  -0.59042   2.05437 
 H                    -1.47792  -3.84446   3.33736 
 H                    -2.95644  -3.82817   4.34734 
 H                    -0.42852  -1.63401   2.90781 
 H                    -1.27759  -0.21579   3.5821 
 N                    -2.52084  -2.40199   1.30854 
 O                    -2.10621  -2.01005   4.06965 
 H                    -0.61437  -1.33643  -0.08906 
 C                     0.0692    7.01581  -1.65416 
 C                    -0.33486   5.87012  -1.01111 
 C                     0.62013   4.95622  -0.4823 
 C                     2.00308   5.23678  -0.67825 
 C                     2.39219   6.43513  -1.33963 
 C                     1.44629   7.31032  -1.81115 
 H                    -0.67854   7.70276  -2.05346 
 H                    -1.39883   5.65636  -0.91179 
 C                     0.24368   3.75298   0.2036 
 C                     2.97082   4.28949  -0.2705 
 H                     3.45726   6.63465  -1.47262 
 H                     1.74977   8.22606  -2.32093 
 C                     2.60692   3.10794   0.34521 
 C                     1.22334   2.87407   0.63505 
 H                     4.02451   4.47756  -0.48341 
 C                    -1.2162    3.41633   0.32679 
 C                    -1.74598   2.31128  -0.31944 
 C                    -2.04796   4.2081    1.18599 
 C                    -3.11485   1.92691  -0.12087 
 C                    -3.42456   3.86891   1.32221 
 C                    -1.54378   5.30489   1.93975 
 C                    -3.92753   2.72184   0.66486 
 C                    -4.26419   4.65718   2.15808 
 C                    -2.37522   6.04248   2.74845 
 H                    -0.48498   5.55733   1.88032 
 H                    -4.97289   2.4419    0.80639 
 C                    -3.75246   5.72503   2.85171 
 H                    -5.31858   4.38685   2.24199 
 H                    -1.96973   6.87825   3.32073 
 H                    -4.39949   6.32455   3.4939 
 S                     0.67623   1.3083    1.3139 
 O                    -0.40753   1.60304   2.20927 
 O                     1.76526   0.58862   1.89433 
 S                    -0.59052   1.23592  -1.17977 
 O                     0.24237   2.07367  -1.98405 
 O                    -1.30244   0.20568  -1.87302 
 N                     0.1816    0.51523   0.01842 
 C                     3.62102   2.12385   0.5828 
 C                     4.46075   1.25883   0.71473 
 C                    -3.65327   0.70614  -0.64654 
 C                    -4.04441  -0.37193  -1.04333 
 C                    -4.2759   -1.6588   -1.63052 
 C                    -5.31643  -2.51525  -1.22398 
 C                    -3.39606  -2.08763  -2.63879 
 C                    -5.47849  -3.76349  -1.81972 
 C                    -3.57148  -3.33227  -3.23808 
 H                    -2.5771   -1.42786  -2.92982 
 C                    -4.60899  -4.17172  -2.83223 
 H                    -6.29263  -4.41302  -1.49716 
 H                    -2.88391  -3.64631  -4.02606 
 H                    -4.74768  -5.14621  -3.30286 
 C                     5.31134   0.13446   0.96733 
 C                     4.94027  -0.76523   1.98007 
 C                     6.47614  -0.12376   0.2189 
 C                     5.72693  -1.88221   2.24809 
 H                     4.02389  -0.56669   2.53805 
 C                     7.25146  -1.24901   0.48454 
 C                     6.88062  -2.12649   1.50316 
 H                     5.43232  -2.56879   3.04298 
 H                     8.14837  -1.43787  -0.1055 
 H                     7.4948   -3.00353   1.7116 
 C                     6.85489   0.80729  -0.90175 
 F                     8.00974   0.45951  -1.47296 
 F                     6.98705   2.07021  -0.4872 
 F                     5.92932   0.8164   -1.87133 
 C                    -6.26962  -2.05313  -0.15548 
 F                    -6.9654   -0.9793   -0.53852 
 F                    -5.62972  -1.70908   0.97154 
 F                    -7.1517   -2.99858   0.17305 
 H                     0.24052  -4.53278  -2.60225 
 
 ITRead=  0  0  0  0  0  0  0  0  0  0  0  0  0  0  0  0  0  0  0  0
 ITRead=  0  0  0  0  0  0  0  0  0  0  0  0  0  0  0  0  0  0  0  0
 ITRead=  0  0  0  0  0  0  0  0  0  0  0  0  0  0  0  0  0  0  0  0
 ITRead=  0  0  0  0  0  0  0  0  0  0  0  0  0  0  0  0  0  0  0  0
 ITRead=  0  0  0  0  0  0  0  0  0  0  0  0  0  0  0  0  0  0  0  0
 ITRead=  0  0  0  0  0  0  0  0  0  0  0  0  0  0  0  0  0
 MicOpt= -1 -1 -1 -1 -1 -1 -1 -1 -1 -1 -1 -1 -1 -1 -1 -1 -1 -1 -1 -1
 MicOpt= -1 -1 -1 -1 -1 -1 -1 -1 -1 -1 -1 -1 -1 -1 -1 -1 -1 -1 -1 -1
 MicOpt= -1 -1 -1 -1 -1 -1 -1 -1 -1 -1 -1 -1 -1 -1 -1 -1 -1 -1 -1 -1
 MicOpt= -1 -1 -1 -1 -1 -1 -1 -1 -1 -1 -1 -1 -1 -1 -1 -1 -1 -1 -1 -1
 MicOpt= -1 -1 -1 -1 -1 -1 -1 -1 -1 -1 -1 -1 -1 -1 -1 -1 -1 -1 -1 -1
 MicOpt= -1 -1 -1 -1 -1 -1 -1 -1 -1 -1 -1 -1 -1 -1 -1 -1 -1
 NAtoms=    117 NQM=      117 NQMF=       0 NMMI=      0 NMMIF=      0
                NMic=       0 NMicF=      0.
                    Isotopes and Nuclear Properties:
 (Nuclear quadrupole moments (NQMom) in fm**2, nuclear magnetic moments (NMagM)
  in nuclear magnetons)

  Atom         1           2           3           4           5           6           7           8           9          10
 IAtWgt=          12          12          12          12          12          14           1          12          12          12
 AtmWgt=  12.0000000  12.0000000  12.0000000  12.0000000  12.0000000  14.0030740   1.0078250  12.0000000  12.0000000  12.0000000
 NucSpn=           0           0           0           0           0           2           1           0           0           0
 AtZEff=   0.0000000   0.0000000   0.0000000   0.0000000   0.0000000   0.0000000   0.0000000   0.0000000   0.0000000   0.0000000
 NQMom=    0.0000000   0.0000000   0.0000000   0.0000000   0.0000000   2.0440000   0.0000000   0.0000000   0.0000000   0.0000000
 NMagM=    0.0000000   0.0000000   0.0000000   0.0000000   0.0000000   0.4037610   2.7928460   0.0000000   0.0000000   0.0000000
 AtZNuc=   6.0000000   6.0000000   6.0000000   6.0000000   6.0000000   7.0000000   1.0000000   6.0000000   6.0000000   6.0000000

  Atom        11          12          13          14          15          16          17          18          19          20
 IAtWgt=          12          12           1           1           1          12          12          12          12          12
 AtmWgt=  12.0000000  12.0000000   1.0078250   1.0078250   1.0078250  12.0000000  12.0000000  12.0000000  12.0000000  12.0000000
 NucSpn=           0           0           1           1           1           0           0           0           0           0
 AtZEff=   0.0000000   0.0000000   0.0000000   0.0000000   0.0000000   0.0000000   0.0000000   0.0000000   0.0000000   0.0000000
 NQMom=    0.0000000   0.0000000   0.0000000   0.0000000   0.0000000   0.0000000   0.0000000   0.0000000   0.0000000   0.0000000
 NMagM=    0.0000000   0.0000000   2.7928460   2.7928460   2.7928460   0.0000000   0.0000000   0.0000000   0.0000000   0.0000000
 AtZNuc=   6.0000000   6.0000000   1.0000000   1.0000000   1.0000000   6.0000000   6.0000000   6.0000000   6.0000000   6.0000000

  Atom        21          22          23          24          25          26          27          28          29          30
 IAtWgt=           1          12           1          12           1           1           1          19          12           1
 AtmWgt=   1.0078250  12.0000000   1.0078250  12.0000000   1.0078250   1.0078250   1.0078250  18.9984032  12.0000000   1.0078250
 NucSpn=           1           0           1           0           1           1           1           1           0           1
 AtZEff=   0.0000000   0.0000000   0.0000000   0.0000000   0.0000000   0.0000000   0.0000000   0.0000000   0.0000000   0.0000000
 NQMom=    0.0000000   0.0000000   0.0000000   0.0000000   0.0000000   0.0000000   0.0000000   0.0000000   0.0000000   0.0000000
 NMagM=    2.7928460   0.0000000   2.7928460   0.0000000   2.7928460   2.7928460   2.7928460   2.6288670   0.0000000   2.7928460
 AtZNuc=   1.0000000   6.0000000   1.0000000   6.0000000   1.0000000   1.0000000   1.0000000   9.0000000   6.0000000   1.0000000

  Atom        31          32          33          34          35          36          37          38          39          40
 IAtWgt=           1           1          12          12          12           1           1          12           1           1
 AtmWgt=   1.0078250   1.0078250  12.0000000  12.0000000  12.0000000   1.0078250   1.0078250  12.0000000   1.0078250   1.0078250
 NucSpn=           1           1           0           0           0           1           1           0           1           1
 AtZEff=   0.0000000   0.0000000   0.0000000   0.0000000   0.0000000   0.0000000   0.0000000   0.0000000   0.0000000   0.0000000
 NQMom=    0.0000000   0.0000000   0.0000000   0.0000000   0.0000000   0.0000000   0.0000000   0.0000000   0.0000000   0.0000000
 NMagM=    2.7928460   2.7928460   0.0000000   0.0000000   0.0000000   2.7928460   2.7928460   0.0000000   2.7928460   2.7928460
 AtZNuc=   1.0000000   1.0000000   6.0000000   6.0000000   6.0000000   1.0000000   1.0000000   6.0000000   1.0000000   1.0000000

  Atom        41          42          43          44          45          46          47          48          49          50
 IAtWgt=           1           1           1           1          14          16           1          12          12          12
 AtmWgt=   1.0078250   1.0078250   1.0078250   1.0078250  14.0030740  15.9949146   1.0078250  12.0000000  12.0000000  12.0000000
 NucSpn=           1           1           1           1           2           0           1           0           0           0
 AtZEff=   0.0000000   0.0000000   0.0000000   0.0000000   0.0000000   0.0000000   0.0000000   0.0000000   0.0000000   0.0000000
 NQMom=    0.0000000   0.0000000   0.0000000   0.0000000   2.0440000   0.0000000   0.0000000   0.0000000   0.0000000   0.0000000
 NMagM=    2.7928460   2.7928460   2.7928460   2.7928460   0.4037610   0.0000000   2.7928460   0.0000000   0.0000000   0.0000000
 AtZNuc=   1.0000000   1.0000000   1.0000000   1.0000000   7.0000000   8.0000000   1.0000000   6.0000000   6.0000000   6.0000000

  Atom        51          52          53          54          55          56          57          58          59          60
 IAtWgt=          12          12          12           1           1          12          12           1           1          12
 AtmWgt=  12.0000000  12.0000000  12.0000000   1.0078250   1.0078250  12.0000000  12.0000000   1.0078250   1.0078250  12.0000000
 NucSpn=           0           0           0           1           1           0           0           1           1           0
 AtZEff=   0.0000000   0.0000000   0.0000000   0.0000000   0.0000000   0.0000000   0.0000000   0.0000000   0.0000000   0.0000000
 NQMom=    0.0000000   0.0000000   0.0000000   0.0000000   0.0000000   0.0000000   0.0000000   0.0000000   0.0000000   0.0000000
 NMagM=    0.0000000   0.0000000   0.0000000   2.7928460   2.7928460   0.0000000   0.0000000   2.7928460   2.7928460   0.0000000
 AtZNuc=   6.0000000   6.0000000   6.0000000   1.0000000   1.0000000   6.0000000   6.0000000   1.0000000   1.0000000   6.0000000

  Atom        61          62          63          64          65          66          67          68          69          70
 IAtWgt=          12           1          12          12          12          12          12          12          12          12
 AtmWgt=  12.0000000   1.0078250  12.0000000  12.0000000  12.0000000  12.0000000  12.0000000  12.0000000  12.0000000  12.0000000
 NucSpn=           0           1           0           0           0           0           0           0           0           0
 AtZEff=   0.0000000   0.0000000   0.0000000   0.0000000   0.0000000   0.0000000   0.0000000   0.0000000   0.0000000   0.0000000
 NQMom=    0.0000000   0.0000000   0.0000000   0.0000000   0.0000000   0.0000000   0.0000000   0.0000000   0.0000000   0.0000000
 NMagM=    0.0000000   2.7928460   0.0000000   0.0000000   0.0000000   0.0000000   0.0000000   0.0000000   0.0000000   0.0000000
 AtZNuc=   6.0000000   1.0000000   6.0000000   6.0000000   6.0000000   6.0000000   6.0000000   6.0000000   6.0000000   6.0000000

  Atom        71          72          73          74          75          76          77          78          79          80
 IAtWgt=          12           1           1          12           1           1           1          32          16          16
 AtmWgt=  12.0000000   1.0078250   1.0078250  12.0000000   1.0078250   1.0078250   1.0078250  31.9720718  15.9949146  15.9949146
 NucSpn=           0           1           1           0           1           1           1           0           0           0
 AtZEff=   0.0000000   0.0000000   0.0000000   0.0000000   0.0000000   0.0000000   0.0000000   0.0000000   0.0000000   0.0000000
 NQMom=    0.0000000   0.0000000   0.0000000   0.0000000   0.0000000   0.0000000   0.0000000   0.0000000   0.0000000   0.0000000
 NMagM=    0.0000000   2.7928460   2.7928460   0.0000000   2.7928460   2.7928460   2.7928460   0.0000000   0.0000000   0.0000000
 AtZNuc=   6.0000000   1.0000000   1.0000000   6.0000000   1.0000000   1.0000000   1.0000000  16.0000000   8.0000000   8.0000000

  Atom        81          82          83          84          85          86          87          88          89          90
 IAtWgt=          32          16          16          14          12          12          12          12          12          12
 AtmWgt=  31.9720718  15.9949146  15.9949146  14.0030740  12.0000000  12.0000000  12.0000000  12.0000000  12.0000000  12.0000000
 NucSpn=           0           0           0           2           0           0           0           0           0           0
 AtZEff=   0.0000000   0.0000000   0.0000000   0.0000000   0.0000000   0.0000000   0.0000000   0.0000000   0.0000000   0.0000000
 NQMom=    0.0000000   0.0000000   0.0000000   2.0440000   0.0000000   0.0000000   0.0000000   0.0000000   0.0000000   0.0000000
 NMagM=    0.0000000   0.0000000   0.0000000   0.4037610   0.0000000   0.0000000   0.0000000   0.0000000   0.0000000   0.0000000
 AtZNuc=  16.0000000   8.0000000   8.0000000   7.0000000   6.0000000   6.0000000   6.0000000   6.0000000   6.0000000   6.0000000

  Atom        91          92          93          94          95          96          97          98          99         100
 IAtWgt=          12          12          12           1          12           1           1           1          12          12
 AtmWgt=  12.0000000  12.0000000  12.0000000   1.0078250  12.0000000   1.0078250   1.0078250   1.0078250  12.0000000  12.0000000
 NucSpn=           0           0           0           1           0           1           1           1           0           0
 AtZEff=   0.0000000   0.0000000   0.0000000   0.0000000   0.0000000   0.0000000   0.0000000   0.0000000   0.0000000   0.0000000
 NQMom=    0.0000000   0.0000000   0.0000000   0.0000000   0.0000000   0.0000000   0.0000000   0.0000000   0.0000000   0.0000000
 NMagM=    0.0000000   0.0000000   0.0000000   2.7928460   0.0000000   2.7928460   2.7928460   2.7928460   0.0000000   0.0000000
 AtZNuc=   6.0000000   6.0000000   6.0000000   1.0000000   6.0000000   1.0000000   1.0000000   1.0000000   6.0000000   6.0000000

  Atom       101         102         103         104         105         106         107         108         109         110
 IAtWgt=          12          12           1          12          12           1           1           1          12          19
 AtmWgt=  12.0000000  12.0000000   1.0078250  12.0000000  12.0000000   1.0078250   1.0078250   1.0078250  12.0000000  18.9984032
 NucSpn=           0           0           1           0           0           1           1           1           0           1
 AtZEff=   0.0000000   0.0000000   0.0000000   0.0000000   0.0000000   0.0000000   0.0000000   0.0000000   0.0000000   0.0000000
 NQMom=    0.0000000   0.0000000   0.0000000   0.0000000   0.0000000   0.0000000   0.0000000   0.0000000   0.0000000   0.0000000
 NMagM=    0.0000000   0.0000000   2.7928460   0.0000000   0.0000000   2.7928460   2.7928460   2.7928460   0.0000000   2.6288670
 AtZNuc=   6.0000000   6.0000000   1.0000000   6.0000000   6.0000000   1.0000000   1.0000000   1.0000000   6.0000000   9.0000000

  Atom       111         112         113         114         115         116         117
 IAtWgt=          19          19          12          19          19          19           1
 AtmWgt=  18.9984032  18.9984032  12.0000000  18.9984032  18.9984032  18.9984032   1.0078250
 NucSpn=           1           1           0           1           1           1           1
 AtZEff=   0.0000000   0.0000000   0.0000000   0.0000000   0.0000000   0.0000000   0.0000000
 NQMom=    0.0000000   0.0000000   0.0000000   0.0000000   0.0000000   0.0000000   0.0000000
 NMagM=    2.6288670   2.6288670   0.0000000   2.6288670   2.6288670   2.6288670   2.7928460
 AtZNuc=   9.0000000   9.0000000   6.0000000   9.0000000   9.0000000   9.0000000   1.0000000
 Leave Link  101 at Mon Feb  3 10:45:51 2025, MaxMem=  7247757312 cpu:               3.4 elap:               0.2
 (Enter /opt/packages/gaussian/g16RevC.01/g16/l202.exe)
 Symmetry turned off by external request.
 Stoichiometry    C60H40F7N3O5S2
 Framework group  C1[X(C60H40F7N3O5S2)]
 Deg. of freedom   345
 Full point group                 C1      NOp   1
                          Input orientation:                          
 ---------------------------------------------------------------------
 Center     Atomic      Atomic             Coordinates (Angstroms)
 Number     Number       Type             X           Y           Z
 ---------------------------------------------------------------------
      1          6           0       -0.106906   -2.845892   -1.354446
      2          6           0       -0.363050   -4.112173   -1.798427
      3          6           0       -1.410580   -4.856762   -1.196470
      4          6           0       -2.121879   -4.300783   -0.158614
      5          6           0       -1.844184   -2.982314    0.301437
      6          7           0       -0.857501   -2.308224   -0.344815
      7          1           0       -2.929433   -4.870411    0.292313
      8          6           0        0.993594   -2.005989   -1.901767
      9          6           0        2.244163   -1.895402   -1.263699
     10          6           0        3.220771   -1.066425   -1.824971
     11          6           0        1.751636   -0.496367   -3.659146
     12          6           0        2.967154   -0.353698   -2.995508
     13          1           0        4.186213   -0.973870   -1.326075
     14          1           0        3.731194    0.311974   -3.399288
     15          1           0        1.524671    0.032773   -4.584695
     16          6           0        0.796392   -1.335774   -3.108042
     17          6           0        2.563889   -2.709770   -0.054443
     18          6           0        1.916845   -2.500104    1.169808
     19          6           0        3.534028   -3.717156   -0.145999
     20          6           0        2.215812   -3.300035    2.272839
     21          1           0        1.213158   -1.673408    1.266831
     22          6           0        3.827361   -4.520605    0.955533
     23          1           0        4.050813   -3.877811   -1.094905
     24          6           0        3.162624   -4.319458    2.165589
     25          1           0        1.713259   -3.116613    3.225154
     26          1           0        4.578935   -5.307370    0.866463
     27          1           0        3.391756   -4.947942    3.028303
     28          9           0       -0.354019   -1.525405   -3.761399
     29          6           0       -1.726759   -6.227044   -1.710227
     30          1           0       -2.589328   -6.666977   -1.195050
     31          1           0       -1.936111   -6.184398   -2.789651
     32          1           0       -0.856980   -6.888061   -1.577251
     33          6           0       -3.257151   -3.186945    2.303601
     34          6           0       -2.226131   -1.070548    1.843976
     35          6           0       -2.407426   -3.285254    3.565948
     36          1           0       -3.519178   -4.179982    1.931445
     37          1           0       -4.188667   -2.651802    2.529190
     38          6           0       -1.425748   -1.204835    3.134849
     39          1           0       -1.706227   -0.436136    1.120868
     40          1           0       -3.194281   -0.590419    2.054368
     41          1           0       -1.477919   -3.844458    3.337360
     42          1           0       -2.956437   -3.828170    4.347342
     43          1           0       -0.428515   -1.634014    2.907808
     44          1           0       -1.277593   -0.215785    3.582101
     45          7           0       -2.520838   -2.401994    1.308541
     46          8           0       -2.106206   -2.010048    4.069647
     47          1           0       -0.614374   -1.336429   -0.089062
     48          6           0        0.069199    7.015807   -1.654162
     49          6           0       -0.334855    5.870123   -1.011113
     50          6           0        0.620134    4.956220   -0.482295
     51          6           0        2.003080    5.236783   -0.678252
     52          6           0        2.392194    6.435129   -1.339628
     53          6           0        1.446290    7.310324   -1.811153
     54          1           0       -0.678537    7.702759   -2.053464
     55          1           0       -1.398830    5.656362   -0.911787
     56          6           0        0.243684    3.752981    0.203597
     57          6           0        2.970820    4.289492   -0.270503
     58          1           0        3.457256    6.634651   -1.472621
     59          1           0        1.749770    8.226064   -2.320928
     60          6           0        2.606919    3.107941    0.345206
     61          6           0        1.223336    2.874073    0.635049
     62          1           0        4.024506    4.477556   -0.483413
     63          6           0       -1.216202    3.416329    0.326788
     64          6           0       -1.745979    2.311275   -0.319438
     65          6           0       -2.047958    4.208100    1.185986
     66          6           0       -3.114849    1.926912   -0.120867
     67          6           0       -3.424560    3.868906    1.322213
     68          6           0       -1.543776    5.304889    1.939751
     69          6           0       -3.927529    2.721844    0.664862
     70          6           0       -4.264185    4.657183    2.158082
     71          6           0       -2.375219    6.042484    2.748448
     72          1           0       -0.484977    5.557325    1.880320
     73          1           0       -4.972888    2.441900    0.806392
     74          6           0       -3.752461    5.725029    2.851705
     75          1           0       -5.318584    4.386846    2.241988
     76          1           0       -1.969728    6.878254    3.320725
     77          1           0       -4.399495    6.324553    3.493904
     78         16           0        0.676232    1.308301    1.313896
     79          8           0       -0.407526    1.603036    2.209269
     80          8           0        1.765262    0.588621    1.894332
     81         16           0       -0.590521    1.235918   -1.179766
     82          8           0        0.242369    2.073670   -1.984050
     83          8           0       -1.302443    0.205675   -1.873020
     84          7           0        0.181603    0.515226    0.018419
     85          6           0        3.621019    2.123850    0.582797
     86          6           0        4.460752    1.258834    0.714733
     87          6           0       -3.653266    0.706139   -0.646538
     88          6           0       -4.044405   -0.371928   -1.043326
     89          6           0       -4.275897   -1.658804   -1.630524
     90          6           0       -5.316434   -2.515247   -1.223976
     91          6           0       -3.396055   -2.087634   -2.638785
     92          6           0       -5.478486   -3.763487   -1.819723
     93          6           0       -3.571475   -3.332265   -3.238081
     94          1           0       -2.577096   -1.427858   -2.929824
     95          6           0       -4.608987   -4.171720   -2.832232
     96          1           0       -6.292635   -4.413021   -1.497163
     97          1           0       -2.883911   -3.646313   -4.026059
     98          1           0       -4.747679   -5.146208   -3.302861
     99          6           0        5.311336    0.134456    0.967327
    100          6           0        4.940269   -0.765232    1.980071
    101          6           0        6.476143   -0.123755    0.218904
    102          6           0        5.726931   -1.882211    2.248088
    103          1           0        4.023894   -0.566692    2.538046
    104          6           0        7.251458   -1.249008    0.484541
    105          6           0        6.880616   -2.126494    1.503160
    106          1           0        5.432317   -2.568785    3.042976
    107          1           0        8.148368   -1.437868   -0.105499
    108          1           0        7.494796   -3.003535    1.711604
    109          6           0        6.854890    0.807285   -0.901754
    110          9           0        8.009744    0.459507   -1.472959
    111          9           0        6.987052    2.070213   -0.487199
    112          9           0        5.929318    0.816401   -1.871331
    113          6           0       -6.269618   -2.053128   -0.155484
    114          9           0       -6.965396   -0.979298   -0.538524
    115          9           0       -5.629715   -1.709079    0.971541
    116          9           0       -7.151698   -2.998583    0.173052
    117          1           0        0.240520   -4.532781   -2.602245
 ---------------------------------------------------------------------
 Rotational constants (GHZ):           0.0366635           0.0269592           0.0196604
 Leave Link  202 at Mon Feb  3 10:45:51 2025, MaxMem=  7247757312 cpu:               2.4 elap:               0.2
 (Enter /opt/packages/gaussian/g16RevC.01/g16/l301.exe)
 Standard basis: def2TZVPP (5D, 7F)
 Ernie: Thresh=  0.10000D-02 Tol=  0.10000D-05 Strict=F.
  2969 basis functions,  4643 primitive gaussians,  3396 cartesian basis functions
   278 alpha electrons      278 beta electrons
       nuclear repulsion energy     14964.1459387670 Hartrees.
 IExCor=  402 DFT=T Ex+Corr=B3LYP ExCW=0 ScaHFX=  0.200000
 ScaDFX=  0.800000  0.720000  1.000000  0.810000 ScalE2=  1.000000  1.000000
 IRadAn=      5 IRanWt=     -1 IRanGd=            0 ICorTp=0 IEmpDi=141
 NAtoms=  117 NActive=  117 NUniq=  117 SFac= 1.00D+00 NAtFMM=   60 NAOKFM=T Big=T
 Integral buffers will be    131072 words long.
 Raffenetti 2 integral format.
 Two-electron integral symmetry is turned off.
 R6Disp:  Grimme-D3(BJ) Dispersion energy=       -0.3898954684 Hartrees.
 Nuclear repulsion after empirical dispersion term =    14963.7560432985 Hartrees.
 ------------------------------------------------------------------------------
 Polarizable Continuum Model (PCM)
 =================================
 Model                : PCM.
 Atomic radii         : SMD-Coulomb.
 Polarization charges : Total charges.
 Charge compensation  : None.
 Solution method      : On-the-fly selection.
 Cavity type          : VdW (van der Waals Surface) (Alpha=1.000).
 Cavity algorithm     : GePol (No added spheres)
                        Default sphere list used, NSphG=  117.
                        Lebedev-Laikov grids with approx.  5.0 points / Ang**2.
                        Smoothing algorithm: York/Karplus (Gamma=1.0000).
                        Polarization charges: spherical gaussians, with
                                              point-specific exponents (IZeta= 3).
                        Self-potential: point-specific (ISelfS= 7).
                        Self-field    : sphere-specific E.n sum rule (ISelfD= 2).
 Solvent              : PropylEthanoate, Eps=   5.520500 Eps(inf)=   1.916010
 ------------------------------------------------------------------------------
 GePol: Number of generator spheres                  =     117
 GePol: Total number of spheres                      =     117
 GePol: Number of exposed spheres                    =     117 (100.00%)
 GePol: Number of points                             =    8010
 GePol: Average weight of points                     =       0.11
 GePol: Minimum weight of points                     =   0.11D-11
 GePol: Maximum weight of points                     =    0.21501
 GePol: Number of points with low weight             =     530
 GePol: Fraction of low-weight points (<1% of avg)   =       6.62%
 GePol: Cavity surface area                          =    885.370 Ang**2
 GePol: Cavity volume                                =   1043.296 Ang**3
 ------------------------------------------------------------------------------
 Atomic radii for non-electrostatic terms: SMD-CDS.
 ------------------------------------------------------------------------------
 PCM non-electrostatic energy =        -0.0206832056 Hartrees.
 Nuclear repulsion after PCM non-electrostatic terms =    14963.7353600929 Hartrees.
 Leave Link  301 at Mon Feb  3 10:45:51 2025, MaxMem=  7247757312 cpu:               5.5 elap:               0.2
 (Enter /opt/packages/gaussian/g16RevC.01/g16/l302.exe)
 NPDir=0 NMtPBC=     1 NCelOv=     1 NCel=       1 NClECP=     1 NCelD=      1
         NCelK=      1 NCelE2=     1 NClLst=     1 CellRange=     0.0.
 One-electron integrals computed using PRISM.
   1 Symmetry operations used in ECPInt.
 ECPInt:  NShTT=  597871 NPrTT= 1758715 LenC2=  396072 LenP2D=  748553.
 LDataN:  DoStor=T MaxTD1= 6 Len=  172
 Number of processors reduced to  24 by ecpmxn.
 NBasis=  2969 RedAO= T EigKep=  2.08D-06  NBF=  2969
 NBsUse=  2969 1.00D-06 EigRej= -1.00D+00 NBFU=  2969
 Precomputing XC quadrature grid using
 IXCGrd= 4 IRadAn=           5 IRanWt=          -1 IRanGd=           0 AccXCQ= 0.00D+00.
 Generated NRdTot=       0 NPtTot=           0 NUsed=           0 NTot=          32
 NSgBfM=  2834  2815  2822  2826  2834 MxSgAt=   117 MxSgA2=   117.
 Leave Link  302 at Mon Feb  3 10:46:11 2025, MaxMem=  7247757312 cpu:             627.0 elap:              19.8
 (Enter /opt/packages/gaussian/g16RevC.01/g16/l303.exe)
 DipDrv:  MaxL=1.
 Leave Link  303 at Mon Feb  3 10:46:13 2025, MaxMem=  7247757312 cpu:              30.9 elap:               1.3
 (Enter /opt/packages/gaussian/g16RevC.01/g16/l401.exe)
 ExpMin= 9.52D-02 ExpMax= 6.07D+04 ExpMxC= 2.07D+03 IAcc=3 IRadAn=         5 AccDes= 0.00D+00
 Harris functional with IExCor=  402 and IRadAn=       5 diagonalized for initial guess.
 HarFok:  IExCor=  402 AccDes= 0.00D+00 IRadAn=         5 IDoV= 1 UseB2=F ITyADJ=14
 ICtDFT=  3500011 ScaDFX=  1.000000  1.000000  1.000000  1.000000
 FoFCou: FMM=F IPFlag=           0 FMFlag=      100000 FMFlg1=        2001
         NFxFlg=           0 DoJE=T BraDBF=F KetDBF=T FulRan=T
         wScrn=  0.000000 ICntrl=       500 IOpCl=  0 I1Cent=   200000004 NGrid=           0
         NMat0=    1 NMatS0=      1 NMatT0=    0 NMatD0=    1 NMtDS0=    0 NMtDT0=    0
 Symmetry not used in FoFCou.
 Harris En= -4347.89738817296    
 JPrj=0 DoOrth=F DoCkMO=F.
 Leave Link  401 at Mon Feb  3 10:46:37 2025, MaxMem=  7247757312 cpu:             772.7 elap:              24.4
 (Enter /opt/packages/gaussian/g16RevC.01/g16/l502.exe)
 Two-electron integral symmetry not used.
 Closed shell SCF:
 Using DIIS extrapolation, IDIIS=  1040.
 NGot=  7247757312 LenX=  7224559544 LenY=  7213023332
 Requested convergence on RMS density matrix=1.00D-08 within 128 cycles.
 Requested convergence on MAX density matrix=1.00D-06.
 Requested convergence on             energy=1.00D-06.
 No special actions if energy rises.
 Fock matrices will be formed incrementally for  20 cycles.

 Cycle   1  Pass 1  IDiag  1:
 FoFJK:  IHMeth= 1 ICntrl=       0 DoSepK=F KAlg= 0 I1Cent=           0 FoldK=F
 IRaf= 620000000 NMat=       1 IRICut=       1 DoRegI=T DoRafI=F ISym2E= 0 IDoP0=0 IntGTp=1.
 FoFCou: FMM=T IPFlag=           0 FMFlag=      100000 FMFlg1=        2001
         NFxFlg=           0 DoJE=F BraDBF=F KetDBF=F FulRan=T
         wScrn=  0.000000 ICntrl=         0 IOpCl=  0 I1Cent=           0 NGrid=           0
         NMat0=    1 NMatS0=      1 NMatT0=    0 NMatD0=    1 NMtDS0=    0 NMtDT0=    0
 Symmetry not used in FoFCou.
 FMM levels:  10  Number of levels for PrismC:   9
 Inv3:  Mode=1 IEnd=   192480300.
 Iteration    1 A*A^-1 deviation from unit magnitude is 3.77D-15 for   4205.
 Iteration    1 A*A^-1 deviation from orthogonality  is 2.53D-15 for   2547    365.
 Iteration    1 A^-1*A deviation from unit magnitude is 3.44D-15 for   7150.
 Iteration    1 A^-1*A deviation from orthogonality  is 1.33D-11 for   6622   6583.
 E= -4345.96564758131    
 DIIS: error= 9.19D-03 at cycle   1 NSaved=   1.
 NSaved= 1 IEnMin= 1 EnMin= -4345.96564758131     IErMin= 1 ErrMin= 9.19D-03
 ErrMax= 9.19D-03  0.00D+00 EMaxC= 1.00D-01 BMatC= 2.36D+00 BMatP= 2.36D+00
 IDIUse=3 WtCom= 9.08D-01 WtEn= 9.19D-02
 Coeff-Com:  0.100D+01
 Coeff-En:   0.100D+01
 Coeff:      0.100D+01
 Gap=     0.192 Goal=   None    Shift=    0.000
 GapD=    0.192 DampG=1.000 DampE=1.000 DampFc=1.0000 IDamp=-1.
 RMSDP=2.79D-03 MaxDP=1.05D+00              OVMax= 2.28D-01

 Cycle   2  Pass 1  IDiag  1:
 RMSU=  2.75D-03    CP:  1.13D+00
 E= -4343.96598284275     Delta-E=        1.999664738560 Rises=F Damp=F
 DIIS: error= 1.69D-02 at cycle   2 NSaved=   2.
 NSaved= 2 IEnMin= 1 EnMin= -4345.96564758131     IErMin= 1 ErrMin= 9.19D-03
 ErrMax= 1.69D-02  0.00D+00 EMaxC= 1.00D-01 BMatC= 5.06D+00 BMatP= 2.36D+00
 IDIUse=2 WtCom= 0.00D+00 WtEn= 1.00D+00
 Coeff-En:   0.663D+00 0.337D+00
 Coeff:      0.663D+00 0.337D+00
 Gap=     0.179 Goal=   None    Shift=    0.000
 RMSDP=2.02D-03 MaxDP=8.34D-01 DE= 2.00D+00 OVMax= 2.26D-01

 Cycle   3  Pass 1  IDiag  1:
 RMSU=  8.07D-04    CP:  1.02D+00  3.39D-01
 E= -4347.65480413430     Delta-E=       -3.688821291549 Rises=F Damp=F
 DIIS: error= 4.27D-03 at cycle   3 NSaved=   3.
 NSaved= 3 IEnMin= 3 EnMin= -4347.65480413430     IErMin= 3 ErrMin= 4.27D-03
 ErrMax= 4.27D-03  0.00D+00 EMaxC= 1.00D-01 BMatC= 2.00D-01 BMatP= 2.36D+00
 IDIUse=3 WtCom= 9.57D-01 WtEn= 4.27D-02
 Coeff-Com:  0.274D+00 0.167D+00 0.559D+00
 Coeff-En:   0.000D+00 0.000D+00 0.100D+01
 Coeff:      0.262D+00 0.160D+00 0.578D+00
 Gap=     0.160 Goal=   None    Shift=    0.000
 RMSDP=7.24D-04 MaxDP=1.80D-01 DE=-3.69D+00 OVMax= 9.66D-02

 Cycle   4  Pass 1  IDiag  1:
 RMSU=  4.35D-04    CP:  1.00D+00  2.71D-01  3.28D-01
 E= -4347.79121670599     Delta-E=       -0.136412571686 Rises=F Damp=F
 DIIS: error= 2.71D-03 at cycle   4 NSaved=   4.
 NSaved= 4 IEnMin= 4 EnMin= -4347.79121670599     IErMin= 4 ErrMin= 2.71D-03
 ErrMax= 2.71D-03  0.00D+00 EMaxC= 1.00D-01 BMatC= 6.56D-02 BMatP= 2.00D-01
 IDIUse=3 WtCom= 9.73D-01 WtEn= 2.71D-02
 Coeff-Com:  0.725D-01 0.318D-01 0.366D+00 0.529D+00
 Coeff-En:   0.000D+00 0.000D+00 0.250D+00 0.750D+00
 Coeff:      0.705D-01 0.309D-01 0.363D+00 0.535D+00
 Gap=     0.149 Goal=   None    Shift=    0.000
 RMSDP=2.45D-04 MaxDP=9.25D-02 DE=-1.36D-01 OVMax= 5.89D-02

 Cycle   5  Pass 1  IDiag  1:
 RMSU=  1.23D-04    CP:  1.00D+00  2.73D-01  5.22D-01  6.73D-01
 E= -4347.84476687526     Delta-E=       -0.053550169274 Rises=F Damp=F
 DIIS: error= 9.47D-04 at cycle   5 NSaved=   5.
 NSaved= 5 IEnMin= 5 EnMin= -4347.84476687526     IErMin= 5 ErrMin= 9.47D-04
 ErrMax= 9.47D-04  0.00D+00 EMaxC= 1.00D-01 BMatC= 6.66D-03 BMatP= 6.56D-02
 IDIUse=3 WtCom= 9.91D-01 WtEn= 9.47D-03
 Coeff-Com:  0.132D-01-0.728D-03 0.159D+00 0.321D+00 0.507D+00
 Coeff-En:   0.000D+00 0.000D+00 0.000D+00 0.400D-01 0.960D+00
 Coeff:      0.131D-01-0.721D-03 0.158D+00 0.318D+00 0.511D+00
 Gap=     0.142 Goal=   None    Shift=    0.000
 RMSDP=6.00D-05 MaxDP=1.63D-02 DE=-5.36D-02 OVMax= 1.55D-02

 Cycle   6  Pass 1  IDiag  1:
 RMSU=  4.00D-05    CP:  1.00D+00  2.76D-01  5.26D-01  6.95D-01  6.53D-01
 E= -4347.85011777358     Delta-E=       -0.005350898318 Rises=F Damp=F
 DIIS: error= 5.46D-04 at cycle   6 NSaved=   6.
 NSaved= 6 IEnMin= 6 EnMin= -4347.85011777358     IErMin= 6 ErrMin= 5.46D-04
 ErrMax= 5.46D-04  0.00D+00 EMaxC= 1.00D-01 BMatC= 9.17D-04 BMatP= 6.66D-03
 IDIUse=3 WtCom= 9.95D-01 WtEn= 5.46D-03
 Coeff-Com:  0.225D-02-0.349D-02 0.680D-01 0.151D+00 0.327D+00 0.456D+00
 Coeff-En:   0.000D+00 0.000D+00 0.000D+00 0.000D+00 0.109D+00 0.891D+00
 Coeff:      0.224D-02-0.347D-02 0.677D-01 0.150D+00 0.326D+00 0.458D+00
 Gap=     0.142 Goal=   None    Shift=    0.000
 RMSDP=1.53D-05 MaxDP=2.46D-03 DE=-5.35D-03 OVMax= 7.33D-03

 Cycle   7  Pass 1  IDiag  1:
 RMSU=  1.31D-05    CP:  1.00D+00  2.76D-01  5.28D-01  6.95D-01  6.69D-01
                    CP:  8.17D-01
 E= -4347.85091313904     Delta-E=       -0.000795365464 Rises=F Damp=F
 DIIS: error= 1.91D-04 at cycle   7 NSaved=   7.
 NSaved= 7 IEnMin= 7 EnMin= -4347.85091313904     IErMin= 7 ErrMin= 1.91D-04
 ErrMax= 1.91D-04  0.00D+00 EMaxC= 1.00D-01 BMatC= 1.15D-04 BMatP= 9.17D-04
 IDIUse=3 WtCom= 9.98D-01 WtEn= 1.91D-03
 Coeff-Com: -0.135D-03-0.225D-02 0.234D-01 0.542D-01 0.145D+00 0.303D+00
 Coeff-Com:  0.477D+00
 Coeff-En:   0.000D+00 0.000D+00 0.000D+00 0.000D+00 0.000D+00 0.103D+00
 Coeff-En:   0.897D+00
 Coeff:     -0.135D-03-0.224D-02 0.234D-01 0.541D-01 0.145D+00 0.303D+00
 Coeff:      0.477D+00
 Gap=     0.142 Goal=   None    Shift=    0.000
 RMSDP=6.41D-06 MaxDP=1.52D-03 DE=-7.95D-04 OVMax= 2.23D-03

 Cycle   8  Pass 1  IDiag  1:
 RMSU=  4.21D-06    CP:  1.00D+00  2.76D-01  5.28D-01  6.95D-01  6.77D-01
                    CP:  7.85D-01  6.58D-01
 E= -4347.85101845331     Delta-E=       -0.000105314262 Rises=F Damp=F
 DIIS: error= 3.39D-05 at cycle   8 NSaved=   8.
 NSaved= 8 IEnMin= 8 EnMin= -4347.85101845331     IErMin= 8 ErrMin= 3.39D-05
 ErrMax= 3.39D-05  0.00D+00 EMaxC= 1.00D-01 BMatC= 6.54D-06 BMatP= 1.15D-04
 IDIUse=1 WtCom= 1.00D+00 WtEn= 0.00D+00
 Coeff-Com: -0.245D-03-0.953D-03 0.687D-02 0.162D-01 0.515D-01 0.129D+00
 Coeff-Com:  0.262D+00 0.536D+00
 Coeff:     -0.245D-03-0.953D-03 0.687D-02 0.162D-01 0.515D-01 0.129D+00
 Coeff:      0.262D+00 0.536D+00
 Gap=     0.142 Goal=   None    Shift=    0.000
 RMSDP=1.78D-06 MaxDP=3.42D-04 DE=-1.05D-04 OVMax= 5.61D-04

 Cycle   9  Pass 1  IDiag  1:
 RMSU=  1.33D-06    CP:  1.00D+00  2.76D-01  5.27D-01  6.96D-01  6.76D-01
                    CP:  7.88D-01  6.77D-01  8.25D-01
 E= -4347.85102372094     Delta-E=       -0.000005267635 Rises=F Damp=F
 DIIS: error= 9.84D-06 at cycle   9 NSaved=   9.
 NSaved= 9 IEnMin= 9 EnMin= -4347.85102372094     IErMin= 9 ErrMin= 9.84D-06
 ErrMax= 9.84D-06  0.00D+00 EMaxC= 1.00D-01 BMatC= 1.01D-06 BMatP= 6.54D-06
 IDIUse=1 WtCom= 1.00D+00 WtEn= 0.00D+00
 Coeff-Com: -0.113D-03-0.230D-03 0.751D-03 0.186D-02 0.102D-01 0.333D-01
 Coeff-Com:  0.831D-01 0.315D+00 0.556D+00
 Coeff:     -0.113D-03-0.230D-03 0.751D-03 0.186D-02 0.102D-01 0.333D-01
 Coeff:      0.831D-01 0.315D+00 0.556D+00
 Gap=     0.142 Goal=   None    Shift=    0.000
 RMSDP=7.61D-07 MaxDP=1.47D-04 DE=-5.27D-06 OVMax= 2.81D-04

 Cycle  10  Pass 1  IDiag  1:
 RMSU=  5.99D-07    CP:  1.00D+00  2.76D-01  5.27D-01  6.96D-01  6.77D-01
                    CP:  7.91D-01  6.82D-01  7.98D-01  7.15D-01
 E= -4347.85102460743     Delta-E=       -0.000000886492 Rises=F Damp=F
 DIIS: error= 4.63D-06 at cycle  10 NSaved=  10.
 NSaved=10 IEnMin=10 EnMin= -4347.85102460743     IErMin=10 ErrMin= 4.63D-06
 ErrMax= 4.63D-06  0.00D+00 EMaxC= 1.00D-01 BMatC= 1.42D-07 BMatP= 1.01D-06
 IDIUse=1 WtCom= 1.00D+00 WtEn= 0.00D+00
 Coeff-Com: -0.533D-04-0.507D-04-0.174D-03-0.355D-03 0.162D-02 0.896D-02
 Coeff-Com:  0.266D-01 0.141D+00 0.342D+00 0.480D+00
 Coeff:     -0.533D-04-0.507D-04-0.174D-03-0.355D-03 0.162D-02 0.896D-02
 Coeff:      0.266D-01 0.141D+00 0.342D+00 0.480D+00
 Gap=     0.142 Goal=   None    Shift=    0.000
 RMSDP=3.42D-07 MaxDP=1.18D-04 DE=-8.86D-07 OVMax= 1.09D-04

 Cycle  11  Pass 1  IDiag  1:
 RMSU=  2.15D-07    CP:  1.00D+00  2.76D-01  5.27D-01  6.96D-01  6.77D-01
                    CP:  7.91D-01  6.80D-01  8.26D-01  7.78D-01  7.13D-01
 E= -4347.85102473192     Delta-E=       -0.000000124492 Rises=F Damp=F
 DIIS: error= 1.11D-06 at cycle  11 NSaved=  11.
 NSaved=11 IEnMin=11 EnMin= -4347.85102473192     IErMin=11 ErrMin= 1.11D-06
 ErrMax= 1.11D-06  0.00D+00 EMaxC= 1.00D-01 BMatC= 1.66D-08 BMatP= 1.42D-07
 IDIUse=1 WtCom= 1.00D+00 WtEn= 0.00D+00
 Coeff-Com: -0.202D-04-0.144D-05-0.178D-03-0.384D-03-0.132D-03 0.160D-02
 Coeff-Com:  0.590D-02 0.445D-01 0.137D+00 0.296D+00 0.516D+00
 Coeff:     -0.202D-04-0.144D-05-0.178D-03-0.384D-03-0.132D-03 0.160D-02
 Coeff:      0.590D-02 0.445D-01 0.137D+00 0.296D+00 0.516D+00
 Gap=     0.142 Goal=   None    Shift=    0.000
 RMSDP=1.29D-07 MaxDP=2.96D-05 DE=-1.24D-07 OVMax= 3.73D-05

 Cycle  12  Pass 1  IDiag  1:
 RMSU=  8.33D-08    CP:  1.00D+00  2.76D-01  5.27D-01  6.96D-01  6.77D-01
                    CP:  7.92D-01  6.82D-01  8.29D-01  7.83D-01  7.35D-01
                    CP:  6.10D-01
 E= -4347.85102474795     Delta-E=       -0.000000016025 Rises=F Damp=F
 DIIS: error= 4.23D-07 at cycle  12 NSaved=  12.
 NSaved=12 IEnMin=12 EnMin= -4347.85102474795     IErMin=12 ErrMin= 4.23D-07
 ErrMax= 4.23D-07  0.00D+00 EMaxC= 1.00D-01 BMatC= 2.11D-09 BMatP= 1.66D-08
 IDIUse=1 WtCom= 1.00D+00 WtEn= 0.00D+00
 Coeff-Com: -0.597D-05 0.829D-05-0.107D-03-0.229D-03-0.371D-03-0.249D-03
 Coeff-Com:  0.887D-04 0.904D-02 0.402D-01 0.112D+00 0.309D+00 0.530D+00
 Coeff:     -0.597D-05 0.829D-05-0.107D-03-0.229D-03-0.371D-03-0.249D-03
 Coeff:      0.887D-04 0.904D-02 0.402D-01 0.112D+00 0.309D+00 0.530D+00
 Gap=     0.142 Goal=   None    Shift=    0.000
 RMSDP=5.33D-08 MaxDP=1.78D-05 DE=-1.60D-08 OVMax= 1.19D-05

 Cycle  13  Pass 1  IDiag  1:
 RMSU=  2.57D-08    CP:  1.00D+00  2.76D-01  5.27D-01  6.96D-01  6.77D-01
                    CP:  7.92D-01  6.82D-01  8.30D-01  7.85D-01  7.51D-01
                    CP:  6.91D-01  7.11D-01
 E= -4347.85102474987     Delta-E=       -0.000000001921 Rises=F Damp=F
 DIIS: error= 1.39D-07 at cycle  13 NSaved=  13.
 NSaved=13 IEnMin=13 EnMin= -4347.85102474987     IErMin=13 ErrMin= 1.39D-07
 ErrMax= 1.39D-07  0.00D+00 EMaxC= 1.00D-01 BMatC= 2.52D-10 BMatP= 2.11D-09
 IDIUse=1 WtCom= 1.00D+00 WtEn= 0.00D+00
 Coeff-Com: -0.825D-06 0.485D-05-0.337D-04-0.695D-04-0.182D-03-0.359D-03
 Coeff-Com: -0.809D-03-0.158D-02 0.260D-02 0.182D-01 0.103D+00 0.304D+00
 Coeff-Com:  0.576D+00
 Coeff:     -0.825D-06 0.485D-05-0.337D-04-0.695D-04-0.182D-03-0.359D-03
 Coeff:     -0.809D-03-0.158D-02 0.260D-02 0.182D-01 0.103D+00 0.304D+00
 Coeff:      0.576D+00
 Gap=     0.142 Goal=   None    Shift=    0.000
 RMSDP=1.60D-08 MaxDP=5.87D-06 DE=-1.92D-09 OVMax= 4.03D-06

 Cycle  14  Pass 1  IDiag  1:
 RMSU=  9.45D-09    CP:  1.00D+00  2.76D-01  5.27D-01  6.96D-01  6.77D-01
                    CP:  7.92D-01  6.82D-01  8.29D-01  7.86D-01  7.56D-01
                    CP:  7.05D-01  7.78D-01  7.54D-01
 E= -4347.85102474961     Delta-E=        0.000000000258 Rises=F Damp=F
 DIIS: error= 8.28D-08 at cycle  14 NSaved=  14.
 NSaved=14 IEnMin=13 EnMin= -4347.85102474987     IErMin=14 ErrMin= 8.28D-08
 ErrMax= 8.28D-08  0.00D+00 EMaxC= 1.00D-01 BMatC= 4.67D-11 BMatP= 2.52D-10
 IDIUse=1 WtCom= 1.00D+00 WtEn= 0.00D+00
 Coeff-Com:  0.370D-06 0.159D-05-0.390D-05-0.728D-05-0.565D-04-0.191D-03
 Coeff-Com: -0.535D-03-0.253D-02-0.502D-02-0.788D-02 0.141D-01 0.101D+00
 Coeff-Com:  0.356D+00 0.545D+00
 Coeff:      0.370D-06 0.159D-05-0.390D-05-0.728D-05-0.565D-04-0.191D-03
 Coeff:     -0.535D-03-0.253D-02-0.502D-02-0.788D-02 0.141D-01 0.101D+00
 Coeff:      0.356D+00 0.545D+00
 Gap=     0.142 Goal=   None    Shift=    0.000
 RMSDP=6.57D-09 MaxDP=1.74D-06 DE= 2.58D-10 OVMax= 1.64D-06

 Cycle  15  Pass 1  IDiag  1:
 RMSU=  4.13D-09    CP:  1.00D+00  2.76D-01  5.27D-01  6.96D-01  6.77D-01
                    CP:  7.92D-01  6.82D-01  8.29D-01  7.87D-01  7.56D-01
                    CP:  7.10D-01  7.91D-01  8.20D-01  8.25D-01
 E= -4347.85102474973     Delta-E=       -0.000000000115 Rises=F Damp=F
 DIIS: error= 4.21D-08 at cycle  15 NSaved=  15.
 NSaved=15 IEnMin=13 EnMin= -4347.85102474987     IErMin=15 ErrMin= 4.21D-08
 ErrMax= 4.21D-08  0.00D+00 EMaxC= 1.00D-01 BMatC= 8.47D-12 BMatP= 4.67D-11
 IDIUse=1 WtCom= 1.00D+00 WtEn= 0.00D+00
 Coeff-Com:  0.337D-06 0.252D-06 0.167D-05 0.335D-05-0.114D-04-0.629D-04
 Coeff-Com: -0.194D-03-0.120D-02-0.313D-02-0.710D-02-0.496D-02 0.183D-01
 Coeff-Com:  0.142D+00 0.351D+00 0.505D+00
 Coeff:      0.337D-06 0.252D-06 0.167D-05 0.335D-05-0.114D-04-0.629D-04
 Coeff:     -0.194D-03-0.120D-02-0.313D-02-0.710D-02-0.496D-02 0.183D-01
 Coeff:      0.142D+00 0.351D+00 0.505D+00
 Gap=     0.142 Goal=   None    Shift=    0.000
 RMSDP=2.31D-09 MaxDP=6.49D-07 DE=-1.15D-10 OVMax= 7.05D-07

 Error on total polarization charges =  0.07475
 SCF Done:  E(RB3LYP) =  -4347.85102475     A.U. after   15 cycles
            NFock= 15  Conv=0.23D-08     -V/T= 2.0044
 KE= 4.328940260051D+03 PE=-4.012552846417D+04 EE= 1.648500181927D+04
 SMD-CDS (non-electrostatic) energy       (kcal/mol) =     -12.98
 (included in total energy above)
 Leave Link  502 at Mon Feb  3 12:24:23 2025, MaxMem=  7247757312 cpu:          186134.4 elap:            5866.0
 (Enter /opt/packages/gaussian/g16RevC.01/g16/l601.exe)
 Copying SCF densities to generalized density rwf, IOpCl= 0 IROHF=0.
 Hyperfine terms turned off by default for NAtoms > 100.

 **********************************************************************

            Population analysis using the SCF Density.

 **********************************************************************

 Alpha  occ. eigenvalues --  -89.03451 -89.03432 -24.72287 -24.71819 -24.71810
 Alpha  occ. eigenvalues --  -24.71809 -24.71406 -24.71334 -24.69581 -19.13379
 Alpha  occ. eigenvalues --  -19.09877 -19.09803 -19.09638 -19.09571 -14.39378
 Alpha  occ. eigenvalues --  -14.37037 -14.29459 -10.42875 -10.42438 -10.29370
 Alpha  occ. eigenvalues --  -10.26108 -10.25342 -10.22237 -10.22023 -10.21892
 Alpha  occ. eigenvalues --  -10.21692 -10.21514 -10.21447 -10.21432 -10.21401
 Alpha  occ. eigenvalues --  -10.20938 -10.20920 -10.20894 -10.20815 -10.20766
 Alpha  occ. eigenvalues --  -10.20744 -10.20507 -10.19780 -10.19648 -10.19619
 Alpha  occ. eigenvalues --  -10.19581 -10.19579 -10.19532 -10.19453 -10.19327
 Alpha  occ. eigenvalues --  -10.19127 -10.18950 -10.18925 -10.18918 -10.18842
 Alpha  occ. eigenvalues --  -10.18752 -10.18694 -10.18614 -10.18526 -10.18496
 Alpha  occ. eigenvalues --  -10.18440 -10.18217 -10.18145 -10.18073 -10.18031
 Alpha  occ. eigenvalues --  -10.18026 -10.18013 -10.17969 -10.17965 -10.17940
 Alpha  occ. eigenvalues --  -10.17926 -10.17884 -10.17806 -10.17728 -10.17709
 Alpha  occ. eigenvalues --  -10.17676 -10.17629 -10.17587 -10.17545 -10.17345
 Alpha  occ. eigenvalues --  -10.17315 -10.17210  -8.08033  -8.08005  -6.04352
 Alpha  occ. eigenvalues --   -6.04319  -6.04255  -6.04242  -6.04237  -6.04204
 Alpha  occ. eigenvalues --   -1.32928  -1.32463  -1.23938  -1.23556  -1.23513
 Alpha  occ. eigenvalues --   -1.23456  -1.23060  -1.11921  -1.10366  -1.05402
 Alpha  occ. eigenvalues --   -1.02696  -0.99605  -0.99373  -0.96160  -0.90579
 Alpha  occ. eigenvalues --   -0.89156  -0.88473  -0.88320  -0.88068  -0.87791
 Alpha  occ. eigenvalues --   -0.85292  -0.84893  -0.84280  -0.84030  -0.81717
 Alpha  occ. eigenvalues --   -0.81197  -0.79697  -0.79305  -0.78797  -0.78531
 Alpha  occ. eigenvalues --   -0.78384  -0.78008  -0.77150  -0.76639  -0.76467
 Alpha  occ. eigenvalues --   -0.75758  -0.74847  -0.74599  -0.74359  -0.73538
 Alpha  occ. eigenvalues --   -0.72614  -0.72593  -0.71969  -0.71461  -0.70866
 Alpha  occ. eigenvalues --   -0.70445  -0.67882  -0.67717  -0.66090  -0.65561
 Alpha  occ. eigenvalues --   -0.65232  -0.64866  -0.64094  -0.63799  -0.63437
 Alpha  occ. eigenvalues --   -0.63131  -0.62957  -0.62687  -0.62117  -0.61809
 Alpha  occ. eigenvalues --   -0.61505  -0.60697  -0.60426  -0.60192  -0.60120
 Alpha  occ. eigenvalues --   -0.60073  -0.59644  -0.58875  -0.58348  -0.57996
 Alpha  occ. eigenvalues --   -0.57549  -0.57342  -0.56716  -0.55130  -0.54897
 Alpha  occ. eigenvalues --   -0.54724  -0.53641  -0.53146  -0.52741  -0.52622
 Alpha  occ. eigenvalues --   -0.52007  -0.51544  -0.51448  -0.51246  -0.50108
 Alpha  occ. eigenvalues --   -0.49892  -0.49757  -0.48766  -0.48708  -0.48569
 Alpha  occ. eigenvalues --   -0.48384  -0.48262  -0.48185  -0.48010  -0.47965
 Alpha  occ. eigenvalues --   -0.47707  -0.47466  -0.47360  -0.47259  -0.47054
 Alpha  occ. eigenvalues --   -0.47009  -0.46824  -0.46529  -0.46430  -0.45958
 Alpha  occ. eigenvalues --   -0.45662  -0.45580  -0.45473  -0.45454  -0.45122
 Alpha  occ. eigenvalues --   -0.44911  -0.44834  -0.44659  -0.44628  -0.44122
 Alpha  occ. eigenvalues --   -0.44053  -0.43908  -0.43367  -0.43124  -0.43016
 Alpha  occ. eigenvalues --   -0.42931  -0.42859  -0.42651  -0.42597  -0.42468
 Alpha  occ. eigenvalues --   -0.42283  -0.42052  -0.41761  -0.41591  -0.41486
 Alpha  occ. eigenvalues --   -0.41247  -0.41063  -0.40890  -0.40887  -0.40814
 Alpha  occ. eigenvalues --   -0.40412  -0.40128  -0.39422  -0.39272  -0.39187
 Alpha  occ. eigenvalues --   -0.39030  -0.38501  -0.38198  -0.37783  -0.37135
 Alpha  occ. eigenvalues --   -0.37000  -0.36883  -0.36653  -0.36572  -0.36405
 Alpha  occ. eigenvalues --   -0.36317  -0.36184  -0.36097  -0.36004  -0.35832
 Alpha  occ. eigenvalues --   -0.35634  -0.35331  -0.35043  -0.34901  -0.34502
 Alpha  occ. eigenvalues --   -0.34455  -0.34230  -0.33645  -0.33590  -0.33023
 Alpha  occ. eigenvalues --   -0.32312  -0.32262  -0.31728  -0.31422  -0.31137
 Alpha  occ. eigenvalues --   -0.30562  -0.30344  -0.30267  -0.28735  -0.28535
 Alpha  occ. eigenvalues --   -0.28127  -0.27699  -0.27577  -0.27503  -0.27458
 Alpha  occ. eigenvalues --   -0.27132  -0.26784  -0.26191  -0.25851  -0.25630
 Alpha  occ. eigenvalues --   -0.25583  -0.25029  -0.24228  -0.24123  -0.23428
 Alpha  occ. eigenvalues --   -0.22725  -0.21948  -0.21561
 Alpha virt. eigenvalues --   -0.07337  -0.07014  -0.06088  -0.05945  -0.05171
 Alpha virt. eigenvalues --   -0.03366  -0.03304  -0.03006  -0.02915  -0.02493
 Alpha virt. eigenvalues --   -0.02030  -0.01762  -0.00793   0.00184   0.00331
 Alpha virt. eigenvalues --    0.01059   0.02978   0.03610   0.03982   0.04320
 Alpha virt. eigenvalues --    0.04834   0.05084   0.05295   0.05557   0.05761
 Alpha virt. eigenvalues --    0.05946   0.06080   0.06314   0.06474   0.06903
 Alpha virt. eigenvalues --    0.07224   0.07282   0.07497   0.07569   0.07753
 Alpha virt. eigenvalues --    0.08094   0.08181   0.08254   0.08730   0.08819
 Alpha virt. eigenvalues --    0.08998   0.09194   0.09460   0.09583   0.09834
 Alpha virt. eigenvalues --    0.10016   0.10271   0.10382   0.10404   0.10544
 Alpha virt. eigenvalues --    0.10697   0.10841   0.11055   0.11175   0.11203
 Alpha virt. eigenvalues --    0.11559   0.11714   0.12042   0.12116   0.12213
 Alpha virt. eigenvalues --    0.12422   0.12643   0.12746   0.12963   0.13156
 Alpha virt. eigenvalues --    0.13209   0.13508   0.13520   0.13595   0.13747
 Alpha virt. eigenvalues --    0.13811   0.14159   0.14334   0.14455   0.14607
 Alpha virt. eigenvalues --    0.14810   0.14973   0.15081   0.15272   0.15626
 Alpha virt. eigenvalues --    0.15734   0.15806   0.16041   0.16096   0.16165
 Alpha virt. eigenvalues --    0.16450   0.16717   0.17201   0.17344   0.17653
 Alpha virt. eigenvalues --    0.17769   0.17880   0.18058   0.18370   0.18635
 Alpha virt. eigenvalues --    0.18910   0.19029   0.19129   0.19328   0.19576
 Alpha virt. eigenvalues --    0.19761   0.19964   0.20056   0.20163   0.20315
 Alpha virt. eigenvalues --    0.20361   0.20422   0.20620   0.20745   0.20862
 Alpha virt. eigenvalues --    0.21015   0.21063   0.21187   0.21243   0.21459
 Alpha virt. eigenvalues --    0.21624   0.21719   0.21861   0.22110   0.22208
 Alpha virt. eigenvalues --    0.22428   0.22499   0.22579   0.22843   0.22946
 Alpha virt. eigenvalues --    0.23076   0.23312   0.23434   0.23531   0.23594
 Alpha virt. eigenvalues --    0.23786   0.23965   0.24118   0.24253   0.24528
 Alpha virt. eigenvalues --    0.24570   0.24831   0.24980   0.25066   0.25349
 Alpha virt. eigenvalues --    0.25528   0.25588   0.25724   0.25864   0.25906
 Alpha virt. eigenvalues --    0.26005   0.26213   0.26452   0.26637   0.26910
 Alpha virt. eigenvalues --    0.27106   0.27253   0.27604   0.27703   0.27830
 Alpha virt. eigenvalues --    0.28023   0.28182   0.28254   0.28557   0.28591
 Alpha virt. eigenvalues --    0.28696   0.28834   0.28932   0.29007   0.29310
 Alpha virt. eigenvalues --    0.29333   0.29608   0.29754   0.29884   0.30017
 Alpha virt. eigenvalues --    0.30107   0.30169   0.30355   0.30524   0.30735
 Alpha virt. eigenvalues --    0.30854   0.30990   0.31254   0.31345   0.31706
 Alpha virt. eigenvalues --    0.31726   0.31921   0.32022   0.32179   0.32303
 Alpha virt. eigenvalues --    0.32327   0.32650   0.32721   0.32851   0.32994
 Alpha virt. eigenvalues --    0.33079   0.33407   0.33535   0.33619   0.33761
 Alpha virt. eigenvalues --    0.33950   0.33981   0.34307   0.34378   0.34583
 Alpha virt. eigenvalues --    0.34737   0.34998   0.35221   0.35398   0.35678
 Alpha virt. eigenvalues --    0.35735   0.35777   0.35909   0.36178   0.36254
 Alpha virt. eigenvalues --    0.36365   0.36475   0.36695   0.36940   0.37163
 Alpha virt. eigenvalues --    0.37405   0.37459   0.37594   0.37706   0.37850
 Alpha virt. eigenvalues --    0.37944   0.38086   0.38287   0.38347   0.38493
 Alpha virt. eigenvalues --    0.38594   0.38719   0.38878   0.38970   0.39205
 Alpha virt. eigenvalues --    0.39394   0.39552   0.39759   0.39893   0.40066
 Alpha virt. eigenvalues --    0.40140   0.40417   0.40651   0.40753   0.40894
 Alpha virt. eigenvalues --    0.41035   0.41116   0.41272   0.41297   0.41468
 Alpha virt. eigenvalues --    0.41618   0.41726   0.41839   0.42071   0.42151
 Alpha virt. eigenvalues --    0.42227   0.42646   0.42749   0.42871   0.42955
 Alpha virt. eigenvalues --    0.42967   0.43231   0.43258   0.43417   0.43546
 Alpha virt. eigenvalues --    0.43748   0.43956   0.44084   0.44158   0.44259
 Alpha virt. eigenvalues --    0.44359   0.44494   0.44639   0.44889   0.44982
 Alpha virt. eigenvalues --    0.45274   0.45447   0.45527   0.45628   0.45718
 Alpha virt. eigenvalues --    0.45887   0.46017   0.46113   0.46304   0.46435
 Alpha virt. eigenvalues --    0.46653   0.46821   0.47095   0.47219   0.47422
 Alpha virt. eigenvalues --    0.47669   0.47676   0.47761   0.47986   0.48195
 Alpha virt. eigenvalues --    0.48301   0.48477   0.48526   0.48790   0.48936
 Alpha virt. eigenvalues --    0.49018   0.49181   0.49268   0.49498   0.49684
 Alpha virt. eigenvalues --    0.49761   0.49917   0.49974   0.50173   0.50406
 Alpha virt. eigenvalues --    0.50499   0.50853   0.51015   0.51190   0.51233
 Alpha virt. eigenvalues --    0.51492   0.51571   0.51741   0.51857   0.52032
 Alpha virt. eigenvalues --    0.52211   0.52270   0.52557   0.52784   0.52846
 Alpha virt. eigenvalues --    0.53121   0.53271   0.53513   0.53537   0.53762
 Alpha virt. eigenvalues --    0.54007   0.54092   0.54398   0.54570   0.54604
 Alpha virt. eigenvalues --    0.54971   0.55280   0.55435   0.55628   0.56040
 Alpha virt. eigenvalues --    0.56094   0.56331   0.56370   0.56658   0.56910
 Alpha virt. eigenvalues --    0.57164   0.57523   0.57609   0.57730   0.57811
 Alpha virt. eigenvalues --    0.58079   0.58229   0.58344   0.58678   0.58802
 Alpha virt. eigenvalues --    0.59022   0.59196   0.59311   0.59438   0.59579
 Alpha virt. eigenvalues --    0.59891   0.60199   0.60382   0.60727   0.60872
 Alpha virt. eigenvalues --    0.61137   0.61237   0.61438   0.61492   0.61696
 Alpha virt. eigenvalues --    0.61882   0.61993   0.62233   0.62305   0.62750
 Alpha virt. eigenvalues --    0.62802   0.63051   0.63223   0.63471   0.63609
 Alpha virt. eigenvalues --    0.63787   0.64058   0.64153   0.64429   0.64711
 Alpha virt. eigenvalues --    0.64768   0.64877   0.65255   0.65419   0.65567
 Alpha virt. eigenvalues --    0.65685   0.65900   0.66180   0.66332   0.66564
 Alpha virt. eigenvalues --    0.66665   0.66891   0.66938   0.67020   0.67215
 Alpha virt. eigenvalues --    0.67332   0.67497   0.67590   0.67787   0.67935
 Alpha virt. eigenvalues --    0.68027   0.68099   0.68247   0.68473   0.68580
 Alpha virt. eigenvalues --    0.68680   0.68940   0.69012   0.69283   0.69470
 Alpha virt. eigenvalues --    0.69594   0.69674   0.69880   0.69938   0.69996
 Alpha virt. eigenvalues --    0.70341   0.70437   0.70601   0.70817   0.70982
 Alpha virt. eigenvalues --    0.71108   0.71322   0.71343   0.71578   0.71798
 Alpha virt. eigenvalues --    0.71964   0.72097   0.72441   0.72590   0.72822
 Alpha virt. eigenvalues --    0.72865   0.72971   0.73169   0.73411   0.73576
 Alpha virt. eigenvalues --    0.73826   0.73954   0.74126   0.74386   0.74611
 Alpha virt. eigenvalues --    0.74724   0.74876   0.74967   0.75235   0.75450
 Alpha virt. eigenvalues --    0.75619   0.75750   0.76058   0.76102   0.76178
 Alpha virt. eigenvalues --    0.76389   0.76800   0.77053   0.77329   0.77366
 Alpha virt. eigenvalues --    0.77654   0.77730   0.77972   0.78062   0.78207
 Alpha virt. eigenvalues --    0.78364   0.78579   0.78598   0.78825   0.78915
 Alpha virt. eigenvalues --    0.79161   0.79328   0.79375   0.79647   0.79810
 Alpha virt. eigenvalues --    0.79939   0.80344   0.80563   0.80681   0.80816
 Alpha virt. eigenvalues --    0.81030   0.81054   0.81279   0.81340   0.81511
 Alpha virt. eigenvalues --    0.81789   0.81793   0.81985   0.82373   0.82443
 Alpha virt. eigenvalues --    0.82700   0.82829   0.83113   0.83375   0.83471
 Alpha virt. eigenvalues --    0.83597   0.83677   0.83978   0.84128   0.84268
 Alpha virt. eigenvalues --    0.84481   0.84554   0.84870   0.84971   0.85119
 Alpha virt. eigenvalues --    0.85188   0.85685   0.85768   0.86032   0.86164
 Alpha virt. eigenvalues --    0.86429   0.86482   0.86683   0.86931   0.87058
 Alpha virt. eigenvalues --    0.87255   0.87525   0.87610   0.88099   0.88112
 Alpha virt. eigenvalues --    0.88348   0.88440   0.88822   0.88912   0.89146
 Alpha virt. eigenvalues --    0.89262   0.89336   0.89492   0.89937   0.89994
 Alpha virt. eigenvalues --    0.90023   0.90266   0.90499   0.90531   0.90720
 Alpha virt. eigenvalues --    0.90794   0.91071   0.91242   0.91302   0.91337
 Alpha virt. eigenvalues --    0.91698   0.91728   0.91999   0.92161   0.92398
 Alpha virt. eigenvalues --    0.92590   0.92767   0.93034   0.93126   0.93293
 Alpha virt. eigenvalues --    0.93581   0.93866   0.94001   0.94132   0.94559
 Alpha virt. eigenvalues --    0.94665   0.94842   0.95087   0.95334   0.95461
 Alpha virt. eigenvalues --    0.95607   0.95795   0.96010   0.96363   0.96441
 Alpha virt. eigenvalues --    0.96777   0.97026   0.97130   0.97281   0.97406
 Alpha virt. eigenvalues --    0.97491   0.97793   0.97863   0.98014   0.98150
 Alpha virt. eigenvalues --    0.98288   0.98418   0.98791   0.99017   0.99309
 Alpha virt. eigenvalues --    0.99376   0.99593   0.99688   0.99976   1.00351
 Alpha virt. eigenvalues --    1.00553   1.00579   1.00812   1.00945   1.01141
 Alpha virt. eigenvalues --    1.01272   1.01520   1.01722   1.02261   1.02369
 Alpha virt. eigenvalues --    1.02599   1.02714   1.03030   1.03112   1.03246
 Alpha virt. eigenvalues --    1.03379   1.03842   1.03914   1.04014   1.04234
 Alpha virt. eigenvalues --    1.04511   1.04632   1.05017   1.05259   1.05369
 Alpha virt. eigenvalues --    1.05680   1.05749   1.05962   1.06206   1.06264
 Alpha virt. eigenvalues --    1.06558   1.06609   1.06835   1.07131   1.07209
 Alpha virt. eigenvalues --    1.07578   1.07747   1.07882   1.08073   1.08118
 Alpha virt. eigenvalues --    1.08296   1.08417   1.08595   1.09041   1.09119
 Alpha virt. eigenvalues --    1.09358   1.09427   1.09764   1.09942   1.10043
 Alpha virt. eigenvalues --    1.10452   1.10681   1.10755   1.11093   1.11328
 Alpha virt. eigenvalues --    1.11391   1.11505   1.11821   1.11870   1.12160
 Alpha virt. eigenvalues --    1.12434   1.12775   1.12936   1.13171   1.13246
 Alpha virt. eigenvalues --    1.13370   1.13865   1.13894   1.14000   1.14294
 Alpha virt. eigenvalues --    1.14527   1.14658   1.14848   1.15243   1.15318
 Alpha virt. eigenvalues --    1.15513   1.15900   1.15969   1.16190   1.16303
 Alpha virt. eigenvalues --    1.16479   1.16574   1.16813   1.17078   1.17155
 Alpha virt. eigenvalues --    1.17335   1.17401   1.17469   1.17824   1.18015
 Alpha virt. eigenvalues --    1.18184   1.18300   1.18670   1.18847   1.19065
 Alpha virt. eigenvalues --    1.19148   1.19469   1.19507   1.19899   1.19980
 Alpha virt. eigenvalues --    1.20207   1.20354   1.20775   1.21036   1.21247
 Alpha virt. eigenvalues --    1.21517   1.21663   1.21916   1.22249   1.22398
 Alpha virt. eigenvalues --    1.22601   1.22767   1.22788   1.22929   1.23084
 Alpha virt. eigenvalues --    1.23272   1.23350   1.23583   1.24028   1.24188
 Alpha virt. eigenvalues --    1.24350   1.24383   1.24786   1.24871   1.25189
 Alpha virt. eigenvalues --    1.25526   1.25773   1.25970   1.26082   1.26371
 Alpha virt. eigenvalues --    1.26637   1.26778   1.27154   1.27359   1.27523
 Alpha virt. eigenvalues --    1.27599   1.27704   1.27919   1.28108   1.28244
 Alpha virt. eigenvalues --    1.28482   1.28548   1.28771   1.28894   1.29231
 Alpha virt. eigenvalues --    1.29386   1.29686   1.29916   1.30170   1.30199
 Alpha virt. eigenvalues --    1.30557   1.30693   1.31008   1.31121   1.31280
 Alpha virt. eigenvalues --    1.31386   1.31527   1.31977   1.32070   1.32194
 Alpha virt. eigenvalues --    1.32293   1.32621   1.32803   1.33041   1.33071
 Alpha virt. eigenvalues --    1.33371   1.33633   1.33686   1.33870   1.33991
 Alpha virt. eigenvalues --    1.34214   1.34399   1.34632   1.34745   1.34827
 Alpha virt. eigenvalues --    1.34909   1.35125   1.35400   1.35530   1.35637
 Alpha virt. eigenvalues --    1.35853   1.35928   1.36175   1.36322   1.36514
 Alpha virt. eigenvalues --    1.36715   1.37171   1.37373   1.37580   1.37733
 Alpha virt. eigenvalues --    1.37789   1.37972   1.38296   1.38502   1.38702
 Alpha virt. eigenvalues --    1.38848   1.38998   1.39362   1.39546   1.39704
 Alpha virt. eigenvalues --    1.39908   1.39981   1.40239   1.40668   1.40721
 Alpha virt. eigenvalues --    1.40978   1.41168   1.41388   1.41639   1.41803
 Alpha virt. eigenvalues --    1.41962   1.42019   1.42294   1.42452   1.42840
 Alpha virt. eigenvalues --    1.43167   1.43195   1.43384   1.43715   1.43916
 Alpha virt. eigenvalues --    1.44027   1.44202   1.44230   1.44441   1.44483
 Alpha virt. eigenvalues --    1.44673   1.45011   1.45288   1.45539   1.45674
 Alpha virt. eigenvalues --    1.45753   1.46072   1.46200   1.46434   1.46543
 Alpha virt. eigenvalues --    1.46941   1.47007   1.47590   1.47802   1.47925
 Alpha virt. eigenvalues --    1.48176   1.48308   1.48692   1.48801   1.49297
 Alpha virt. eigenvalues --    1.49385   1.49478   1.49685   1.49728   1.50121
 Alpha virt. eigenvalues --    1.50192   1.50296   1.50548   1.50892   1.51100
 Alpha virt. eigenvalues --    1.51508   1.51694   1.51934   1.52037   1.52579
 Alpha virt. eigenvalues --    1.52589   1.52894   1.53122   1.53533   1.53658
 Alpha virt. eigenvalues --    1.53840   1.54044   1.54488   1.54572   1.54656
 Alpha virt. eigenvalues --    1.55140   1.55220   1.55332   1.55519   1.55899
 Alpha virt. eigenvalues --    1.55935   1.56036   1.56397   1.56670   1.56802
 Alpha virt. eigenvalues --    1.57086   1.57502   1.57579   1.57643   1.57838
 Alpha virt. eigenvalues --    1.58304   1.58407   1.58546   1.59119   1.59357
 Alpha virt. eigenvalues --    1.59509   1.59706   1.59870   1.60206   1.60362
 Alpha virt. eigenvalues --    1.60575   1.61065   1.61168   1.61432   1.61575
 Alpha virt. eigenvalues --    1.61947   1.62263   1.62610   1.62769   1.62984
 Alpha virt. eigenvalues --    1.63200   1.63365   1.63508   1.63599   1.63925
 Alpha virt. eigenvalues --    1.64031   1.64342   1.64551   1.64697   1.64859
 Alpha virt. eigenvalues --    1.65348   1.65435   1.65739   1.65833   1.65916
 Alpha virt. eigenvalues --    1.66261   1.66620   1.66854   1.67037   1.67296
 Alpha virt. eigenvalues --    1.67426   1.67601   1.67768   1.67906   1.68157
 Alpha virt. eigenvalues --    1.68344   1.68365   1.68773   1.69134   1.69272
 Alpha virt. eigenvalues --    1.69531   1.69692   1.70110   1.70203   1.70462
 Alpha virt. eigenvalues --    1.70638   1.71077   1.71163   1.71488   1.71647
 Alpha virt. eigenvalues --    1.71856   1.72202   1.72329   1.72444   1.72709
 Alpha virt. eigenvalues --    1.72851   1.73125   1.73292   1.73431   1.73626
 Alpha virt. eigenvalues --    1.73953   1.74211   1.74429   1.74750   1.74822
 Alpha virt. eigenvalues --    1.75177   1.75512   1.75733   1.75759   1.75951
 Alpha virt. eigenvalues --    1.76313   1.76475   1.76870   1.76879   1.77084
 Alpha virt. eigenvalues --    1.77341   1.77700   1.77965   1.78022   1.78433
 Alpha virt. eigenvalues --    1.78478   1.78731   1.78830   1.79291   1.79830
 Alpha virt. eigenvalues --    1.79953   1.80422   1.80511   1.80715   1.81174
 Alpha virt. eigenvalues --    1.81282   1.81479   1.81596   1.81716   1.82395
 Alpha virt. eigenvalues --    1.82577   1.83010   1.83126   1.83476   1.83856
 Alpha virt. eigenvalues --    1.84104   1.84249   1.84493   1.84870   1.85116
 Alpha virt. eigenvalues --    1.85184   1.85279   1.85735   1.85943   1.86043
 Alpha virt. eigenvalues --    1.86630   1.86689   1.86719   1.87356   1.87626
 Alpha virt. eigenvalues --    1.87738   1.87821   1.88066   1.88432   1.88877
 Alpha virt. eigenvalues --    1.89178   1.89423   1.89571   1.89781   1.90235
 Alpha virt. eigenvalues --    1.90487   1.90727   1.90956   1.91122   1.91321
 Alpha virt. eigenvalues --    1.91498   1.91792   1.92293   1.92446   1.92742
 Alpha virt. eigenvalues --    1.93203   1.93607   1.93812   1.94014   1.94369
 Alpha virt. eigenvalues --    1.94509   1.94545   1.94925   1.95219   1.95590
 Alpha virt. eigenvalues --    1.96012   1.96338   1.96473   1.96705   1.97067
 Alpha virt. eigenvalues --    1.97331   1.97697   1.97991   1.98256   1.98519
 Alpha virt. eigenvalues --    1.98876   1.99208   1.99332   1.99689   2.00121
 Alpha virt. eigenvalues --    2.00172   2.00487   2.00713   2.01150   2.01523
 Alpha virt. eigenvalues --    2.01594   2.01897   2.02253   2.02515   2.02643
 Alpha virt. eigenvalues --    2.02893   2.03077   2.03676   2.03861   2.04215
 Alpha virt. eigenvalues --    2.04475   2.04705   2.04859   2.05057   2.05445
 Alpha virt. eigenvalues --    2.05731   2.06039   2.06125   2.06362   2.06815
 Alpha virt. eigenvalues --    2.07059   2.07303   2.07382   2.07920   2.08100
 Alpha virt. eigenvalues --    2.08275   2.08378   2.08823   2.09023   2.09295
 Alpha virt. eigenvalues --    2.09496   2.09982   2.10020   2.10162   2.10488
 Alpha virt. eigenvalues --    2.10954   2.11129   2.11470   2.11566   2.11756
 Alpha virt. eigenvalues --    2.11982   2.12095   2.12401   2.12555   2.12857
 Alpha virt. eigenvalues --    2.13024   2.13289   2.13408   2.13711   2.13944
 Alpha virt. eigenvalues --    2.13976   2.14437   2.14626   2.15044   2.15269
 Alpha virt. eigenvalues --    2.15533   2.15734   2.16276   2.16358   2.16605
 Alpha virt. eigenvalues --    2.16728   2.17193   2.17393   2.17678   2.17825
 Alpha virt. eigenvalues --    2.18193   2.18282   2.19030   2.19427   2.19837
 Alpha virt. eigenvalues --    2.19969   2.20097   2.20364   2.21191   2.21637
 Alpha virt. eigenvalues --    2.21854   2.22088   2.22326   2.22476   2.22819
 Alpha virt. eigenvalues --    2.23032   2.23312   2.23815   2.24216   2.24432
 Alpha virt. eigenvalues --    2.25002   2.25353   2.25636   2.26035   2.26139
 Alpha virt. eigenvalues --    2.26268   2.26753   2.26892   2.27109   2.27312
 Alpha virt. eigenvalues --    2.28040   2.28354   2.28409   2.28949   2.29153
 Alpha virt. eigenvalues --    2.29823   2.29984   2.30013   2.30328   2.30612
 Alpha virt. eigenvalues --    2.30915   2.31122   2.31459   2.31876   2.32046
 Alpha virt. eigenvalues --    2.32341   2.32629   2.32959   2.33466   2.33806
 Alpha virt. eigenvalues --    2.33965   2.34400   2.34805   2.35223   2.35308
 Alpha virt. eigenvalues --    2.35513   2.35604   2.35916   2.35978   2.36281
 Alpha virt. eigenvalues --    2.36483   2.37026   2.37289   2.37558   2.37926
 Alpha virt. eigenvalues --    2.38394   2.38601   2.38661   2.38938   2.39163
 Alpha virt. eigenvalues --    2.39453   2.39531   2.39735   2.39983   2.40008
 Alpha virt. eigenvalues --    2.40612   2.40687   2.40961   2.41443   2.41549
 Alpha virt. eigenvalues --    2.41844   2.41935   2.42349   2.42700   2.42837
 Alpha virt. eigenvalues --    2.43223   2.43457   2.43834   2.43836   2.44085
 Alpha virt. eigenvalues --    2.44504   2.45032   2.45321   2.45400   2.45915
 Alpha virt. eigenvalues --    2.46109   2.46465   2.46690   2.47026   2.47952
 Alpha virt. eigenvalues --    2.48059   2.48539   2.48966   2.49465   2.49591
 Alpha virt. eigenvalues --    2.50047   2.50508   2.51070   2.51568   2.51879
 Alpha virt. eigenvalues --    2.52209   2.52526   2.52800   2.53584   2.53741
 Alpha virt. eigenvalues --    2.54004   2.54387   2.54428   2.54928   2.55077
 Alpha virt. eigenvalues --    2.55415   2.55623   2.55945   2.56146   2.56390
 Alpha virt. eigenvalues --    2.56757   2.57110   2.57528   2.57679   2.58094
 Alpha virt. eigenvalues --    2.58356   2.58850   2.58879   2.59560   2.59975
 Alpha virt. eigenvalues --    2.60108   2.60151   2.60458   2.60906   2.61048
 Alpha virt. eigenvalues --    2.61314   2.61524   2.61973   2.62405   2.62589
 Alpha virt. eigenvalues --    2.63043   2.63343   2.63493   2.63852   2.64071
 Alpha virt. eigenvalues --    2.64454   2.64759   2.64966   2.64981   2.65816
 Alpha virt. eigenvalues --    2.66185   2.66403   2.66809   2.67083   2.67422
 Alpha virt. eigenvalues --    2.67743   2.68108   2.68273   2.68697   2.68896
 Alpha virt. eigenvalues --    2.69373   2.69386   2.69558   2.69868   2.70098
 Alpha virt. eigenvalues --    2.70356   2.70705   2.70930   2.71088   2.71215
 Alpha virt. eigenvalues --    2.71590   2.71696   2.72016   2.72285   2.72439
 Alpha virt. eigenvalues --    2.72638   2.72730   2.72968   2.73136   2.73387
 Alpha virt. eigenvalues --    2.73678   2.73815   2.73937   2.74293   2.74395
 Alpha virt. eigenvalues --    2.74497   2.74690   2.74998   2.75188   2.75280
 Alpha virt. eigenvalues --    2.75412   2.75514   2.75928   2.76333   2.76621
 Alpha virt. eigenvalues --    2.76778   2.76937   2.77202   2.77466   2.77742
 Alpha virt. eigenvalues --    2.77882   2.78254   2.78559   2.78757   2.78950
 Alpha virt. eigenvalues --    2.79184   2.79640   2.79933   2.80033   2.80230
 Alpha virt. eigenvalues --    2.80661   2.80712   2.80867   2.81078   2.81415
 Alpha virt. eigenvalues --    2.81474   2.81654   2.81846   2.81992   2.82195
 Alpha virt. eigenvalues --    2.82472   2.82688   2.82843   2.83242   2.83353
 Alpha virt. eigenvalues --    2.83484   2.83690   2.84009   2.84233   2.84319
 Alpha virt. eigenvalues --    2.84461   2.84805   2.85264   2.85388   2.85687
 Alpha virt. eigenvalues --    2.85836   2.86142   2.86255   2.86734   2.86801
 Alpha virt. eigenvalues --    2.86911   2.87171   2.87265   2.87722   2.87879
 Alpha virt. eigenvalues --    2.88201   2.88461   2.88838   2.88872   2.89143
 Alpha virt. eigenvalues --    2.89316   2.89529   2.89720   2.89956   2.90300
 Alpha virt. eigenvalues --    2.90554   2.90586   2.90916   2.91255   2.91410
 Alpha virt. eigenvalues --    2.91524   2.91877   2.92124   2.92447   2.92454
 Alpha virt. eigenvalues --    2.92616   2.92877   2.93104   2.93373   2.93499
 Alpha virt. eigenvalues --    2.93753   2.93860   2.94158   2.94220   2.94262
 Alpha virt. eigenvalues --    2.94678   2.94731   2.94952   2.95514   2.95691
 Alpha virt. eigenvalues --    2.95805   2.96240   2.96370   2.96579   2.96693
 Alpha virt. eigenvalues --    2.96807   2.97106   2.97207   2.97322   2.97502
 Alpha virt. eigenvalues --    2.97584   2.97818   2.98103   2.98210   2.98454
 Alpha virt. eigenvalues --    2.98665   2.98914   2.99078   2.99282   2.99510
 Alpha virt. eigenvalues --    2.99537   2.99699   2.99930   3.00024   3.00116
 Alpha virt. eigenvalues --    3.00370   3.00485   3.00900   3.01132   3.01274
 Alpha virt. eigenvalues --    3.01428   3.01498   3.01912   3.02085   3.02119
 Alpha virt. eigenvalues --    3.02242   3.02427   3.02502   3.02757   3.02867
 Alpha virt. eigenvalues --    3.02997   3.03366   3.03477   3.03559   3.03664
 Alpha virt. eigenvalues --    3.03730   3.03885   3.03925   3.04329   3.04423
 Alpha virt. eigenvalues --    3.04668   3.04763   3.04976   3.05120   3.05248
 Alpha virt. eigenvalues --    3.05370   3.05537   3.05665   3.05956   3.06132
 Alpha virt. eigenvalues --    3.06299   3.06501   3.06883   3.07043   3.07354
[...]
 Alpha virt. eigenvalues --    4.55992   4.56220   4.56779   4.57415   4.57688
 Alpha virt. eigenvalues --    4.58070   4.58255   4.58540   4.58860   4.59450
 Alpha virt. eigenvalues --    4.59519   4.60155   4.60732   4.61230   4.61427
 Alpha virt. eigenvalues --    4.61943   4.62417   4.62667   4.62719   4.64030
 Alpha virt. eigenvalues --    4.64318   4.64610   4.64731   4.65226   4.65514
 Alpha virt. eigenvalues --    4.65718   4.65785   4.65865   4.66338   4.66722
 Alpha virt. eigenvalues --    4.66903   4.67210   4.67324   4.67643   4.67798
 Alpha virt. eigenvalues --    4.68015   4.68144   4.68455   4.68696   4.68983
 Alpha virt. eigenvalues --    4.69557   4.69861   4.70122   4.70367   4.70661
 Alpha virt. eigenvalues --    4.71003   4.71224   4.71645   4.72073   4.72389
 Alpha virt. eigenvalues --    4.72658   4.72893   4.73213   4.73580   4.73884
 Alpha virt. eigenvalues --    4.74000   4.74574   4.74710   4.75028   4.75578
 Alpha virt. eigenvalues --    4.75819   4.76014   4.76289   4.76487   4.76881
 Alpha virt. eigenvalues --    4.77126   4.77317   4.77612   4.77929   4.78134
 Alpha virt. eigenvalues --    4.78485   4.78803   4.79091   4.79717   4.80010
 Alpha virt. eigenvalues --    4.80331   4.80716   4.81085   4.81226   4.81474
 Alpha virt. eigenvalues --    4.81918   4.82627   4.82659   4.83192   4.83906
 Alpha virt. eigenvalues --    4.84186   4.84516   4.85260   4.85549   4.85939
 Alpha virt. eigenvalues --    4.86140   4.86587   4.86849   4.87185   4.87985
 Alpha virt. eigenvalues --    4.88379   4.88932   4.89396   4.89931   4.90282
 Alpha virt. eigenvalues --    4.90565   4.90827   4.91279   4.92237   4.92319
 Alpha virt. eigenvalues --    4.92920   4.93014   4.93802   4.94289   4.94518
 Alpha virt. eigenvalues --    4.94737   4.94807   4.94927   4.95484   4.95654
 Alpha virt. eigenvalues --    4.96450   4.98334   4.98688   4.99264   4.99855
 Alpha virt. eigenvalues --    5.00238   5.00476   5.00714   5.01032   5.01172
 Alpha virt. eigenvalues --    5.01695   5.01958   5.02340   5.02773   5.03671
 Alpha virt. eigenvalues --    5.03995   5.04031   5.04460   5.05189   5.06046
 Alpha virt. eigenvalues --    5.06604   5.06891   5.07190   5.07915   5.08423
 Alpha virt. eigenvalues --    5.08662   5.09508   5.10322   5.10568   5.10771
 Alpha virt. eigenvalues --    5.11214   5.11507   5.11826   5.12237   5.12464
 Alpha virt. eigenvalues --    5.12590   5.12771   5.12804   5.13659   5.14456
 Alpha virt. eigenvalues --    5.14996   5.15503   5.15740   5.15961   5.16441
 Alpha virt. eigenvalues --    5.16485   5.17485   5.18147   5.18524   5.18770
 Alpha virt. eigenvalues --    5.18994   5.19119   5.19322   5.19611   5.19690
 Alpha virt. eigenvalues --    5.20134   5.20472   5.20656   5.20930   5.21189
 Alpha virt. eigenvalues --    5.21411   5.21588   5.21855   5.22312   5.22549
 Alpha virt. eigenvalues --    5.22628   5.22786   5.23135   5.23179   5.23520
 Alpha virt. eigenvalues --    5.23901   5.24108   5.24367   5.24725   5.25034
 Alpha virt. eigenvalues --    5.25480   5.25778   5.25844   5.26116   5.26384
 Alpha virt. eigenvalues --    5.27076   5.27612   5.28003   5.28176   5.28901
 Alpha virt. eigenvalues --    5.29176   5.29434   5.30072   5.30313   5.30583
 Alpha virt. eigenvalues --    5.31070   5.31348   5.31608   5.32093   5.32207
 Alpha virt. eigenvalues --    5.32580   5.33031   5.33200   5.33510   5.34088
 Alpha virt. eigenvalues --    5.34510   5.34751   5.34898   5.35195   5.35404
 Alpha virt. eigenvalues --    5.35748   5.35973   5.36564   5.37253   5.37720
 Alpha virt. eigenvalues --    5.37959   5.38355   5.38452   5.38946   5.39437
 Alpha virt. eigenvalues --    5.39900   5.40259   5.40499   5.41165   5.41582
 Alpha virt. eigenvalues --    5.42011   5.42401   5.42710   5.43682   5.44047
 Alpha virt. eigenvalues --    5.44742   5.45036   5.45361   5.45928   5.46491
 Alpha virt. eigenvalues --    5.47188   5.47537   5.47951   5.48515   5.48783
 Alpha virt. eigenvalues --    5.49903   5.50234   5.51113   5.51238   5.51728
 Alpha virt. eigenvalues --    5.52489   5.52643   5.53173   5.53374   5.53586
 Alpha virt. eigenvalues --    5.54318   5.54626   5.55841   5.56280   5.56477
 Alpha virt. eigenvalues --    5.56807   5.57211   5.57757   5.58236   5.58463
 Alpha virt. eigenvalues --    5.58723   5.59388   5.59424   5.60171   5.60568
 Alpha virt. eigenvalues --    5.60710   5.60921   5.61391   5.61547   5.61872
 Alpha virt. eigenvalues --    5.62440   5.62580   5.62790   5.62889   5.63481
 Alpha virt. eigenvalues --    5.63684   5.64156   5.64677   5.65287   5.65998
 Alpha virt. eigenvalues --    5.66593   5.67009   5.67587   5.68142   5.69155
 Alpha virt. eigenvalues --    5.69790   5.70290   5.70716   5.71398   5.71807
 Alpha virt. eigenvalues --    5.72042   5.72344   5.73476   5.73674   5.74543
 Alpha virt. eigenvalues --    5.74926   5.76040   5.76503   5.76602   5.78100
 Alpha virt. eigenvalues --    5.78608   5.79341   5.80305   5.80950   5.82014
 Alpha virt. eigenvalues --    5.82221   5.83140   5.84237   5.84964   5.86180
 Alpha virt. eigenvalues --    5.88132   5.88414   5.89058   5.90285   5.91308
 Alpha virt. eigenvalues --    5.91731   5.93937   5.94848   5.95304   5.98846
 Alpha virt. eigenvalues --    5.99694   6.01024   6.01604   6.01856   6.02514
 Alpha virt. eigenvalues --    6.02965   6.05355   6.06337   6.06919   6.07689
 Alpha virt. eigenvalues --    6.08685   6.10916   6.11828   6.11915   6.14848
 Alpha virt. eigenvalues --    6.15221   6.15537   6.15893   6.22652   6.23074
 Alpha virt. eigenvalues --    6.23820   6.24966   6.28821   6.36768   6.42092
 Alpha virt. eigenvalues --    6.45451   6.46117   6.47695   6.48283   6.49919
 Alpha virt. eigenvalues --    6.53179   6.54851   6.56114   6.56452   6.56746
 Alpha virt. eigenvalues --    6.58263   6.61688   6.65556   6.69495   6.70932
 Alpha virt. eigenvalues --    6.75724   6.76153   6.77484   6.77954   6.78536
 Alpha virt. eigenvalues --    6.78757   6.79084   6.79640   6.82124   6.82533
 Alpha virt. eigenvalues --    6.82737   6.83104   6.83562   6.83884   6.84374
 Alpha virt. eigenvalues --    6.84673   6.84802   6.85051   6.85400   6.85781
 Alpha virt. eigenvalues --    6.85813   6.86106   6.86410   6.86558   6.86865
 Alpha virt. eigenvalues --    6.87123   6.87831   6.88803   6.89356   6.91024
 Alpha virt. eigenvalues --    6.93695   6.94864   6.97011   6.97048   6.97246
 Alpha virt. eigenvalues --    6.97782   6.97913   6.99370   7.01232   7.01321
 Alpha virt. eigenvalues --    7.01864   7.04064   7.05422   7.05552   7.07170
 Alpha virt. eigenvalues --    7.08543   7.09187   7.11955   7.12275   7.12856
 Alpha virt. eigenvalues --    7.13185   7.13330   7.17222   7.19043   7.23251
 Alpha virt. eigenvalues --    7.27269   7.35776   7.36159   7.36431   7.36492
 Alpha virt. eigenvalues --    7.36801   7.42947   7.43602   7.43765   7.47741
 Alpha virt. eigenvalues --    7.48434   7.48712   7.54905   7.56749   7.58720
 Alpha virt. eigenvalues --    7.59144   7.62334   7.62715   7.65974   7.89403
 Alpha virt. eigenvalues --    7.90748   7.97872   8.06507   8.27713   8.28321
 Alpha virt. eigenvalues --    8.30423   8.30567   8.31152   8.31269   8.39083
 Alpha virt. eigenvalues --    8.45378   8.45566   8.49225   8.49671   8.57438
 Alpha virt. eigenvalues --    8.57695   8.59130   8.67515   8.67614   8.75165
 Alpha virt. eigenvalues --    8.75590   8.78412   8.78534   8.79276   8.89296
 Alpha virt. eigenvalues --    8.89878   8.94961   8.95395   8.98819   8.99691
 Alpha virt. eigenvalues --    9.06034   9.08589   9.09638   9.10260   9.11436
 Alpha virt. eigenvalues --    9.12562   9.16554   9.18103   9.56528   9.59795
 Alpha virt. eigenvalues --    9.78238   9.83250  10.17257  10.20584  22.57094
 Alpha virt. eigenvalues --   22.67026  22.69533  22.71600  22.77256  22.86932
 Alpha virt. eigenvalues --   22.88764  22.90061  22.96786  22.99305  23.00469
 Alpha virt. eigenvalues --   23.01414  23.02466  23.04472  23.06531  23.06682
 Alpha virt. eigenvalues --   23.09077  23.10075  23.12008  23.12422  23.13233
 Alpha virt. eigenvalues --   23.15218  23.15976  23.16443  23.18240  23.18488
 Alpha virt. eigenvalues --   23.19746  23.21065  23.21776  23.23258  23.24426
 Alpha virt. eigenvalues --   23.25665  23.26279  23.26764  23.28018  23.28804
 Alpha virt. eigenvalues --   23.30140  23.31342  23.32688  23.33557  23.34137
 Alpha virt. eigenvalues --   23.37106  23.41242  23.42109  23.42715  23.46492
 Alpha virt. eigenvalues --   23.48333  23.54447  23.59900  23.60661  23.61388
 Alpha virt. eigenvalues --   23.78649  23.80814  23.81657  23.92327  24.12430
 Alpha virt. eigenvalues --   24.15403  24.16216  24.22565  24.28775  24.35895
 Alpha virt. eigenvalues --   24.39681  32.65176  33.06248  33.35774  44.00144
 Alpha virt. eigenvalues --   44.12454  44.23392  44.29398  44.34938  57.13918
 Alpha virt. eigenvalues --   57.16446  57.23926  57.30869  57.45912  57.49132
 Alpha virt. eigenvalues --   57.55168
          Condensed to atoms (all electrons):
 Mulliken charges:
               1
     1  C    0.128453
     2  C   -0.123046
     3  C    0.003061
     4  C   -0.077825
     5  C    0.058861
     6  N   -0.019798
     7  H    0.142689
     8  C   -0.164736
     9  C    0.282091
    10  C   -0.210292
    11  C   -0.219206
    12  C   -0.114631
    13  H    0.187465
    14  H    0.150215
    15  H    0.136847
    16  C    0.390246
    17  C   -0.092544
    18  C   -0.119906
    19  C   -0.203361
    20  C   -0.164586
    21  H    0.110669
    22  C   -0.163346
    23  H    0.144475
    24  C   -0.163947
    25  H    0.156179
    26  H    0.146732
    27  H    0.151189
    28  F   -0.230397
    29  C   -0.272231
    30  H    0.093740
    31  H    0.110567
    32  H    0.120806
    33  C   -0.039057
    34  C   -0.010382
    35  C    0.006387
    36  H    0.089695
    37  H    0.090269
    38  C    0.010562
    39  H    0.037749
    40  H    0.105188
    41  H    0.073232
    42  H    0.103049
    43  H    0.060679
    44  H    0.110886
    45  N   -0.032002
    46  O   -0.338941
    47  H    0.258876
    48  C   -0.145718
    49  C   -0.178565
    50  C   -0.069466
    51  C   -0.037153
    52  C   -0.142433
    53  C   -0.135249
    54  H    0.154218
    55  H    0.163532
    56  C    0.105898
    57  C   -0.112062
    58  H    0.146527
    59  H    0.153186
    60  C   -0.087886
    61  C   -0.114981
    62  H    0.147032
    63  C    0.114074
    64  C   -0.064648
    65  C   -0.051265
    66  C   -0.151917
    67  C   -0.043573
    68  C   -0.166397
    69  C   -0.091315
    70  C   -0.148717
    71  C   -0.146898
    72  H    0.162604
    73  H    0.147358
    74  C   -0.131832
    75  H    0.146192
    76  H    0.154845
    77  H    0.153331
    78  S    0.907848
    79  O   -0.526079
    80  O   -0.536777
    81  S    0.924548
    82  O   -0.507944
    83  O   -0.560836
    84  N   -0.515163
    85  C    0.051561
    86  C    0.266443
    87  C   -0.005382
    88  C    0.287931
    89  C   -0.044338
    90  C   -0.183052
    91  C   -0.180597
    92  C   -0.107486
    93  C   -0.135296
    94  H    0.163273
    95  C   -0.148764
    96  H    0.159577
    97  H    0.153749
    98  H    0.157985
    99  C   -0.133512
   100  C   -0.172012
   101  C   -0.151726
   102  C   -0.117280
   103  H    0.152155
   104  C   -0.094175
   105  C   -0.143931
   106  H    0.150706
   107  H    0.158701
   108  H    0.156051
   109  C    0.548895
   110  F   -0.186024
   111  F   -0.186339
   112  F   -0.184310
   113  C    0.566420
   114  F   -0.184354
   115  F   -0.191000
   116  F   -0.189191
   117  H    0.150378
 Sum of Mulliken charges =   0.00000
 Mulliken charges with hydrogens summed into heavy atoms:
               1
     1  C    0.128453
     2  C    0.027333
     3  C    0.003061
     4  C    0.064863
     5  C    0.058861
     6  N    0.239078
     8  C   -0.164736
     9  C    0.282091
    10  C   -0.022828
    11  C   -0.082359
    12  C    0.035584
    16  C    0.390246
    17  C   -0.092544
    18  C   -0.009237
    19  C   -0.058886
    20  C   -0.008406
    22  C   -0.016614
    24  C   -0.012758
    28  F   -0.230397
    29  C    0.052882
    33  C    0.140907
    34  C    0.132555
    35  C    0.182668
    38  C    0.182127
    45  N   -0.032002
    46  O   -0.338941
    48  C    0.008500
    49  C   -0.015033
    50  C   -0.069466
    51  C   -0.037153
    52  C    0.004094
    53  C    0.017938
    56  C    0.105898
    57  C    0.034971
    60  C   -0.087886
    61  C   -0.114981
    63  C    0.114074
    64  C   -0.064648
    65  C   -0.051265
    66  C   -0.151917
    67  C   -0.043573
    68  C   -0.003794
    69  C    0.056042
    70  C   -0.002525
    71  C    0.007947
    74  C    0.021499
    78  S    0.907848
    79  O   -0.526079
    80  O   -0.536777
    81  S    0.924548
    82  O   -0.507944
    83  O   -0.560836
    84  N   -0.515163
    85  C    0.051561
    86  C    0.266443
    87  C   -0.005382
    88  C    0.287931
    89  C   -0.044338
    90  C   -0.183052
    91  C   -0.017324
    92  C    0.052091
    93  C    0.018452
    95  C    0.009221
    99  C   -0.133512
   100  C   -0.019857
   101  C   -0.151726
   102  C    0.033426
   104  C    0.064526
   105  C    0.012121
   109  C    0.548895
   110  F   -0.186024
   111  F   -0.186339
   112  F   -0.184310
   113  C    0.566420
   114  F   -0.184354
   115  F   -0.191000
   116  F   -0.189191
 Electronic spatial extent (au):  <R**2>=          55067.3848
 Charge=              0.0000 electrons
 Dipole moment (field-independent basis, Debye):
    X=             -3.6360    Y=            -11.4945    Z=              0.2108  Tot=             12.0577
 Quadrupole moment (field-independent basis, Debye-Ang):
   XX=           -447.3804   YY=           -347.6056   ZZ=           -455.2583
   XY=             -1.3112   XZ=             -3.5337   YZ=              5.6872
 Traceless Quadrupole moment (field-independent basis, Debye-Ang):
   XX=            -30.6323   YY=             69.1425   ZZ=            -38.5102
   XY=             -1.3112   XZ=             -3.5337   YZ=              5.6872
 Octapole moment (field-independent basis, Debye-Ang**2):
  XXX=            -19.2273  YYY=           -126.8911  ZZZ=             13.5222  XYY=           -145.5169
  XXY=           -186.2199  XXZ=             92.6032  XZZ=            -31.4791  YZZ=            -84.3001
  YYZ=            -20.4582  XYZ=           -103.8798
 Hexadecapole moment (field-independent basis, Debye-Ang**3):
 XXXX=         -35790.9377 YYYY=         -25323.1805 ZZZZ=          -9316.5012 XXXY=          -2380.7068
 XXXZ=             99.8707 YYYX=           -650.7607 YYYZ=           -521.1400 ZZZX=             40.7730
 ZZZY=           -572.6558 XXYY=          -9378.4430 XXZZ=          -7308.9154 YYZZ=          -5670.4197
 XXYZ=           -158.4564 YYXZ=            -73.7610 ZZXY=           -459.3168
 N-N= 1.496373536009D+04 E-N=-4.012552850953D+04  KE= 4.328940260051D+03
 Leave Link  601 at Mon Feb  3 12:24:25 2025, MaxMem=  7247757312 cpu:              32.0 elap:               1.8
 (Enter /opt/packages/gaussian/g16RevC.01/g16/l9999.exe)
 Unable to Open any file for archive entry.
 1\1\GINC-R330\SP\RB3LYP\def2TZVPP\C60H40F7N3O5S2\BIM2\03-Feb-2025\0\\#
 p b3lyp def2tzvpp scf=maxcycle=128 nosymm scrf=(smd,solvent=propyletha
 noate) empiricaldispersion=gd3bj\\alkyneCF3_S-ax-R_00_comp_14\\0,1\C,0
 ,-0.106906,-2.845892,-1.354446\C,0,-0.36305,-4.112173,-1.798427\C,0,-1
 .41058,-4.856762,-1.19647\C,0,-2.121879,-4.300783,-0.158614\C,0,-1.844
 184,-2.982314,0.301437\N,0,-0.857501,-2.308224,-0.344815\H,0,-2.929433
 ,-4.870411,0.292313\C,0,0.993594,-2.005989,-1.901767\C,0,2.244163,-1.8
 95402,-1.263699\C,0,3.220771,-1.066425,-1.824971\C,0,1.751636,-0.49636
 7,-3.659146\C,0,2.967154,-0.353698,-2.995508\H,0,4.186213,-0.97387,-1.
 326075\H,0,3.731194,0.311974,-3.399288\H,0,1.524671,0.032773,-4.584695
 \C,0,0.796392,-1.335774,-3.108042\C,0,2.563889,-2.70977,-0.054443\C,0,
 1.916845,-2.500104,1.169808\C,0,3.534028,-3.717156,-0.145999\C,0,2.215
 812,-3.300035,2.272839\H,0,1.213158,-1.673408,1.266831\C,0,3.827361,-4
 .520605,0.955533\H,0,4.050813,-3.877811,-1.094905\C,0,3.162624,-4.3194
 58,2.165589\H,0,1.713259,-3.116613,3.225154\H,0,4.578935,-5.30737,0.86
 6463\H,0,3.391756,-4.947942,3.028303\F,0,-0.354019,-1.525405,-3.761399
 \C,0,-1.726759,-6.227044,-1.710227\H,0,-2.589328,-6.666977,-1.19505\H,
 0,-1.936111,-6.184398,-2.789651\H,0,-0.85698,-6.888061,-1.577251\C,0,-
 3.257151,-3.186945,2.303601\C,0,-2.226131,-1.070548,1.843976\C,0,-2.40
 7426,-3.285254,3.565948\H,0,-3.519178,-4.179982,1.931445\H,0,-4.188667
 ,-2.651802,2.52919\C,0,-1.425748,-1.204835,3.134849\H,0,-1.706227,-0.4
 36136,1.120868\H,0,-3.194281,-0.590419,2.054368\H,0,-1.477919,-3.84445
 8,3.33736\H,0,-2.956437,-3.82817,4.347342\H,0,-0.428515,-1.634014,2.90
 7808\H,0,-1.277593,-0.215785,3.582101\N,0,-2.520838,-2.401994,1.308541
 \O,0,-2.106206,-2.010048,4.069647\H,0,-0.614374,-1.336429,-0.089062\C,
 0,0.069199,7.015807,-1.654162\C,0,-0.334855,5.870123,-1.011113\C,0,0.6
 20134,4.95622,-0.482295\C,0,2.00308,5.236783,-0.678252\C,0,2.392194,6.
 435129,-1.339628\C,0,1.44629,7.310324,-1.811153\H,0,-0.678537,7.702759
 ,-2.053464\H,0,-1.39883,5.656362,-0.911787\C,0,0.243684,3.752981,0.203
 597\C,0,2.97082,4.289492,-0.270503\H,0,3.457256,6.634651,-1.472621\H,0
 ,1.74977,8.226064,-2.320928\C,0,2.606919,3.107941,0.345206\C,0,1.22333
 6,2.874073,0.635049\H,0,4.024506,4.477556,-0.483413\C,0,-1.216202,3.41
 6329,0.326788\C,0,-1.745979,2.311275,-0.319438\C,0,-2.047958,4.2081,1.
 185986\C,0,-3.114849,1.926912,-0.120867\C,0,-3.42456,3.868906,1.322213
 \C,0,-1.543776,5.304889,1.939751\C,0,-3.927529,2.721844,0.664862\C,0,-
 4.264185,4.657183,2.158082\C,0,-2.375219,6.042484,2.748448\H,0,-0.4849
 77,5.557325,1.88032\H,0,-4.972888,2.4419,0.806392\C,0,-3.752461,5.7250
 29,2.851705\H,0,-5.318584,4.386846,2.241988\H,0,-1.969728,6.878254,3.3
 20725\H,0,-4.399495,6.324553,3.493904\S,0,0.676232,1.308301,1.313896\O
 ,0,-0.407526,1.603036,2.209269\O,0,1.765262,0.588621,1.894332\S,0,-0.5
 90521,1.235918,-1.179766\O,0,0.242369,2.07367,-1.98405\O,0,-1.302443,0
 .205675,-1.87302\N,0,0.181603,0.515226,0.018419\C,0,3.621019,2.12385,0
 .582797\C,0,4.460752,1.258834,0.714733\C,0,-3.653266,0.706139,-0.64653
 8\C,0,-4.044405,-0.371928,-1.043326\C,0,-4.275897,-1.658804,-1.630524\
 C,0,-5.316434,-2.515247,-1.223976\C,0,-3.396055,-2.087634,-2.638785\C,
 0,-5.478486,-3.763487,-1.819723\C,0,-3.571475,-3.332265,-3.238081\H,0,
 -2.577096,-1.427858,-2.929824\C,0,-4.608987,-4.17172,-2.832232\H,0,-6.
 292635,-4.413021,-1.497163\H,0,-2.883911,-3.646313,-4.026059\H,0,-4.74
 7679,-5.146208,-3.302861\C,0,5.311336,0.134456,0.967327\C,0,4.940269,-
 0.765232,1.980071\C,0,6.476143,-0.123755,0.218904\C,0,5.726931,-1.8822
 11,2.248088\H,0,4.023894,-0.566692,2.538046\C,0,7.251458,-1.249008,0.4
 84541\C,0,6.880616,-2.126494,1.50316\H,0,5.432317,-2.568785,3.042976\H
 ,0,8.148368,-1.437868,-0.105499\H,0,7.494796,-3.003535,1.711604\C,0,6.
 85489,0.807285,-0.901754\F,0,8.009744,0.459507,-1.472959\F,0,6.987052,
 2.070213,-0.487199\F,0,5.929318,0.816401,-1.871331\C,0,-6.269618,-2.05
 3128,-0.155484\F,0,-6.965396,-0.979298,-0.538524\F,0,-5.629715,-1.7090
 79,0.971541\F,0,-7.151698,-2.998583,0.173052\H,0,0.24052,-4.532781,-2.
 602245\\Version=ES64L-G16RevC.01\HF=-4347.8510247\RMSD=2.308e-09\Dipol
 e=-1.4304937,-4.5222979,0.0829337\Quadrupole=-22.7743486,51.4057334,-2
 8.6313848,-0.97481,-2.627192,4.2283108\PG=C01 [X(C60H40F7N3O5S2)]\\@
 The archive entry for this job was punched.


 FOR THE NATURE OF THE CHEMICAL BOND
 IS THE PROBLEM AT THE HEART OF ALL CHEMISTRY.

                     -- BRYCE CRAWFORD, JR., 1953
 Job cpu time:       2 days  4 hours  7 minutes  0.3 seconds.
 Elapsed time:       0 days  1 hours 38 minutes 34.2 seconds.
 File lengths (MBytes):  RWF=   5597 Int=      0 D2E=      0 Chk=    509 Scr=      1
 Normal termination of Gaussian 16 at Mon Feb  3 12:24:26 2025.
