 Entering Gaussian System, Link 0=g16
 Initial command:
 /ihome/crc/install/gaussian/c01/avx2/tar/g16/l1.exe "/scratch/slurm-18030574/Gau-28358.inp" -scrdir="/scratch/slurm-18030574/"
 Entering Link 1 = /ihome/crc/install/gaussian/c01/avx2/tar/g16/l1.exe PID=     28359.
  
 Copyright (c) 1988-2019, Gaussian, Inc.  All Rights Reserved.
  
 This is part of the Gaussian(R) 16 program.  It is based on
 the Gaussian(R) 09 system (copyright 2009, Gaussian, Inc.),
 the Gaussian(R) 03 system (copyright 2003, Gaussian, Inc.),
 the Gaussian(R) 98 system (copyright 1998, Gaussian, Inc.),
 the Gaussian(R) 94 system (copyright 1995, Gaussian, Inc.),
 the Gaussian 92(TM) system (copyright 1992, Gaussian, Inc.),
 the Gaussian 90(TM) system (copyright 1990, Gaussian, Inc.),
 the Gaussian 88(TM) system (copyright 1988, Gaussian, Inc.),
 the Gaussian 86(TM) system (copyright 1986, Carnegie Mellon
 University), and the Gaussian 82(TM) system (copyright 1983,
 Carnegie Mellon University). Gaussian is a federally registered
 trademark of Gaussian, Inc.
  
 This software contains proprietary and confidential information,
 including trade secrets, belonging to Gaussian, Inc.
  
 This software is provided under written license and may be
 used, copied, transmitted, or stored only in accord with that
 written license.
  
 The following legend is applicable only to US Government
 contracts under FAR:
  
                    RESTRICTED RIGHTS LEGEND
  
 Use, reproduction and disclosure by the US Government is
 subject to restrictions as set forth in subparagraphs (a)
 and (c) of the Commercial Computer Software - Restricted
 Rights clause in FAR 52.227-19.
  
 Gaussian, Inc.
 340 Quinnipiac St., Bldg. 40, Wallingford CT 06492
  
  
 ---------------------------------------------------------------
 Warning -- This program may not be used in any manner that
 competes with the business of Gaussian, Inc. or will provide
 assistance to any competitor of Gaussian, Inc.  The licensee
 of this program is prohibited from giving any competitor of
 Gaussian, Inc. access to this program.  By using this program,
 the user acknowledges that Gaussian, Inc. is engaged in the
 business of creating and licensing software in the field of
 computational chemistry and represents and warrants to the
 licensee that it is not a competitor of Gaussian, Inc. and that
 it will not use this program in any manner prohibited above.
 ---------------------------------------------------------------
  

 Cite this work as:
 Gaussian 16, Revision C.01,
 M. J. Frisch, G. W. Trucks, H. B. Schlegel, G. E. Scuseria, 
 M. A. Robb, J. R. Cheeseman, G. Scalmani, V. Barone, 
 G. A. Petersson, H. Nakatsuji, X. Li, M. Caricato, A. V. Marenich, 
 J. Bloino, B. G. Janesko, R. Gomperts, B. Mennucci, H. P. Hratchian, 
 J. V. Ortiz, A. F. Izmaylov, J. L. Sonnenberg, D. Williams-Young, 
 F. Ding, F. Lipparini, F. Egidi, J. Goings, B. Peng, A. Petrone, 
 T. Henderson, D. Ranasinghe, V. G. Zakrzewski, J. Gao, N. Rega, 
 G. Zheng, W. Liang, M. Hada, M. Ehara, K. Toyota, R. Fukuda, 
 J. Hasegawa, M. Ishida, T. Nakajima, Y. Honda, O. Kitao, H. Nakai, 
 T. Vreven, K. Throssell, J. A. Montgomery, Jr., J. E. Peralta, 
 F. Ogliaro, M. J. Bearpark, J. J. Heyd, E. N. Brothers, K. N. Kudin, 
 V. N. Staroverov, T. A. Keith, R. Kobayashi, J. Normand, 
 K. Raghavachari, A. P. Rendell, J. C. Burant, S. S. Iyengar, 
 J. Tomasi, M. Cossi, J. M. Millam, M. Klene, C. Adamo, R. Cammi, 
 J. W. Ochterski, R. L. Martin, K. Morokuma, O. Farkas, 
 J. B. Foresman, and D. J. Fox, Gaussian, Inc., Wallingford CT, 2019.
 
 ******************************************
 Gaussian 16:  ES64L-G16RevC.01  3-Jul-2019
                 8-Feb-2025 
 ******************************************
 %nprocshared=32
 Will use up to   32 processors via shared memory.
 %mem=54GB
 ----------------------------------------------------------------------
 #p b3lyp def2tzvpp scf=maxcycle=128 nosymm scrf=(smd,solvent=propyleth
 anoate) empiricaldispersion=gd3bj
 ----------------------------------------------------------------------
 1/38=1,172=1/1;
 2/12=2,15=1,17=6,18=5,40=1/2;
 3/5=44,7=202,11=2,25=1,30=1,70=32201,72=169,74=-5,124=41/1,2,3;
 4//1;
 5/5=2,7=128,38=5,53=169/2;
 6/7=2,8=2,9=2,10=2,28=1/1;
 99/5=1,9=1/99;
 Leave Link    1 at Sat Feb  8 11:08:24 2025, MaxMem=  7247757312 cpu:               0.5 elap:               0.0
 (Enter /ihome/crc/install/gaussian/c01/avx2/tar/g16/l101.exe)
 -----------------------------
 alkyneCF3_R-ax-S_01_iodi_comp
 -----------------------------
 Symbolic Z-matrix:
 Charge =  0 Multiplicity = 1
 C                     0.68552  -1.94016  -1.70433 
 C                    -0.09307  -1.19988  -0.81123 
 C                    -0.80162  -0.0857   -1.31428 
 C                    -0.74376   0.17916  -2.67183 
 C                     0.02127  -0.66372  -3.51663 
 N                     0.7185   -1.68655  -3.01397 
 H                    -1.26903   1.05127  -3.05308 
 C                     1.57525  -3.06369  -1.26622 
 C                     2.92049  -3.16723  -1.6966 
 C                     3.6425   -4.33594  -1.42081 
 C                     1.78106  -5.27287  -0.21052 
 C                     3.07586  -5.38784  -0.70299 
 H                     4.68221  -4.4013   -1.74758 
 H                     3.65768  -6.28852  -0.5031 
 H                     1.30525  -6.04614   0.39155 
 C                     1.07258  -4.11564  -0.50004 
 C                     3.6377   -2.03432  -2.34615 
 C                     3.5498   -0.74849  -1.79288 
 C                     4.48635  -2.24446  -3.44053 
 C                     4.30285   0.3019   -2.3144 
 H                     2.90133  -0.57823  -0.93077 
 C                     5.24219  -1.19335  -3.96163 
 H                     4.55404  -3.23925  -3.88738 
 C                     5.15767   0.07917  -3.39691 
 H                     4.21489   1.29325  -1.86306 
 H                     5.89938  -1.37144  -4.81534 
 H                     5.75112   0.90022  -3.8036 
 F                    -0.18214  -4.02681  -0.0289 
 C                    -1.59308   0.80217  -0.39964 
 H                    -1.93113   1.70898  -0.9187 
 H                    -2.47981   0.26827  -0.01482 
 H                    -0.97144   1.10126   0.45695 
 C                     1.12261  -1.14477  -5.6542 
 C                    -0.30855   0.77363  -5.5057 
 C                     2.31257  -0.20315  -5.78321 
 H                     0.71932  -1.37083  -6.65438 
 H                     1.41375  -2.07768  -5.16288 
 C                     0.91828   1.6705   -5.63844 
 H                    -0.69579   0.54753  -6.51234 
 H                    -1.10954   1.27376  -4.95183 
 H                     3.09445  -0.63977  -6.42096 
 H                     2.73915  -0.02382  -4.77744 
 H                     0.6684    2.59841  -6.17277 
 H                     1.28841   1.93538  -4.62833 
 N                     0.07455  -0.48466  -4.88194 
 O                     1.92678   1.02059  -6.37655 
 I                    -2.78415  -2.69952  -1.12847 
 H                    -0.05172  -1.40513   0.26105 
 C                     2.42617   4.70527   5.78383 
 C                     2.77321   4.12082   4.58912 
 C                     1.93964   4.25719   3.44321 
 C                     0.72789   4.99499   3.57237 
 C                     0.39877   5.597     4.81956 
 C                     1.23112   5.45851   5.90159 
 H                     3.07573   4.58511   6.65226 
 H                     3.6912    3.53687   4.51979 
 C                     2.26113   3.65847   2.17968 
 C                    -0.13925   5.10439   2.46152 
 H                    -0.53077   6.1648    4.89486 
 H                     0.97385   5.92019   6.85617 
 C                     0.14811   4.48463   1.25868 
 C                     1.368     3.74691   1.12604 
 H                    -1.06348   5.67783   2.55792 
 C                     3.56633   2.92505   2.05194 
 C                     3.62174   1.5532    1.8809 
 C                     4.77818   3.69251   2.06369 
 C                     4.87255   0.87093   1.74576 
 C                     6.02433   3.01495   1.93769 
 C                     4.78765   5.11303   2.15738 
 C                     6.04108   1.60946   1.78617 
 C                     7.23622   3.76097   1.94463 
 C                     5.97298   5.80896   2.1533 
 H                     3.84444   5.65579   2.22007 
 H                     6.9985    1.09583   1.68331 
 C                     7.21231   5.12844   2.05467 
 H                     8.18049   3.22097   1.8516 
 H                     5.95953   6.89796   2.21994 
 H                     8.14374   5.6967    2.05533 
 S                     1.72576   2.75854  -0.33182 
 O                     3.06347   3.10405  -0.71907 
 O                     0.7073    2.96264  -1.3129 
 S                     2.06761   0.72183   1.58313 
 O                     1.18348   1.09995   2.65913 
 O                     2.29134  -0.68931   1.46126 
 N                     1.6099    1.27358   0.19087 
 C                    -0.80558   4.64617   0.20163 
 C                    -1.65574   4.85735  -0.63723 
 C                     5.02005  -0.54773   1.57712 
 C                     5.30849  -1.71906   1.44596 
 C                     5.65324  -3.10031   1.28079 
 C                     6.69632  -3.49271   0.41663 
 C                     4.96112  -4.09182   1.99162 
 C                     7.0283   -4.83637   0.27157 
 C                     5.30347  -5.43346   1.85002 
 H                     4.14941  -3.79499   2.65516 
 C                     6.33417  -5.80982   0.9907 
 H                     7.8352   -5.12229  -0.40329 
 H                     4.75212  -6.19036   2.41043 
 H                     6.60134  -6.86124   0.87624 
 C                    -2.57813   5.07896  -1.70797 
 C                    -3.84531   5.65498  -1.49213 
 C                    -2.2038    4.73228  -3.01639 
 C                    -4.7076    5.8878   -2.56001 
 C                    -3.06844   4.97165  -4.08115 
 H                    -1.22176   4.28376  -3.17433 
 C                    -4.31781   5.55077  -3.85697 
 H                    -5.68495   6.33566  -2.37841 
 H                    -2.76311   4.7048   -5.09423 
 H                    -4.99479   5.73931  -4.69099 
 C                    -4.25304   6.0323   -0.09111 
 F                    -4.18112   4.99519   0.75426 
 F                    -5.51073   6.47874  -0.04439 
 F                    -3.47465   6.99153   0.41813 
 C                     7.45204  -2.44263  -0.35702 
 F                     6.65056  -1.72439  -1.14302 
 F                     8.3898   -2.98317  -1.14068 
 F                     8.07756  -1.5799    0.45489 
 N                    -4.56915  -3.67943  -0.99286 
 C                    -4.97798  -4.32322   0.1566 
 C                    -6.15596  -5.20725  -0.1934 
 C                    -6.57968  -4.74685  -1.58534 
 C                    -5.42036  -3.90297  -2.08245 
 O                    -5.23972  -3.45969  -3.18264 
 O                    -4.45013  -4.20323   1.24228 
 H                    -5.77984  -6.24188  -0.19619 
 H                    -6.92835  -5.13317   0.58058 
 H                    -7.46621  -4.09489  -1.55679 
 H                    -6.77742  -5.55571  -2.29901 
 C                    -4.36904  -0.74716   2.07257 
 C                    -4.09301   0.56615   2.33424 
 C                    -2.77912   0.94047   2.72914 
 C                    -1.82219  -0.02943   2.91505 
 C                    -2.12792  -1.39445   2.66708 
 N                    -3.38083  -1.68362   2.23348 
 H                    -0.81576   0.26125   3.20802 
 C                    -5.69196  -1.27806   1.64632 
 C                    -6.38567  -0.85564   0.4916 
 C                    -7.59139  -1.4883    0.15552 
 C                    -7.46776  -2.90328   2.11051 
 C                    -8.12761  -2.49657   0.95258 
 H                    -8.11633  -1.16628  -0.74537 
 H                    -9.07373  -2.96487   0.6757 
 H                    -7.85505  -3.68389   2.76593 
 C                    -6.2627   -2.29832   2.41917 
 C                    -5.8832    0.22815  -0.40698 
 C                    -6.03912   1.576    -0.05989 
 C                    -5.31684  -0.09171  -1.64638 
 C                    -5.59556   2.582    -0.91605 
 H                    -6.52986   1.83855   0.87962 
 C                    -4.85305   0.91485  -2.49395 
 H                    -5.24169  -1.13401  -1.95926 
 C                    -4.98372   2.25372  -2.12673 
 H                    -5.7392    3.62701  -0.63914 
 H                    -4.39705   0.64553  -3.44841 
 H                    -4.625     3.04402  -2.78879 
 F                    -5.60442  -2.70642   3.50842 
 C                    -2.43854   2.38899   2.88934 
 H                    -1.39386   2.51921   3.19861 
 H                    -2.58853   2.90427   1.92613 
 H                    -3.10344   2.8695    3.62275 
 C                    -1.68408  -3.79611   2.70438 
 C                     0.10295  -2.17398   3.31638 
 C                    -0.63144  -4.70029   3.32444 
 H                    -1.83467  -4.05815   1.6459 
 H                    -2.63953  -3.94057   3.23529 
 C                     1.06913  -3.16399   2.68764 
 H                     0.455    -1.17514   3.03797 
 H                     0.10804  -2.24751   4.41631 
 H                    -0.9195   -5.74488   3.14817 
 H                    -0.60485  -4.54385   4.41854 
 H                     1.23571  -2.88633   1.63684 
 H                     2.03573  -3.06203   3.20476 
 N                    -1.25482  -2.39812   2.81838 
 O                     0.63425  -4.51189   2.75225 
 H                    -4.87199   1.31785   2.23657 
 H                    -3.61081  -2.64913   1.95525 
 
 ITRead=  0  0  0  0  0  0  0  0  0  0  0  0  0  0  0  0  0  0  0  0
 ITRead=  0  0  0  0  0  0  0  0  0  0  0  0  0  0  0  0  0  0  0  0
 ITRead=  0  0  0  0  0  0  0  0  0  0  0  0  0  0  0  0  0  0  0  0
 ITRead=  0  0  0  0  0  0  0  0  0  0  0  0  0  0  0  0  0  0  0  0
 ITRead=  0  0  0  0  0  0  0  0  0  0  0  0  0  0  0  0  0  0  0  0
 ITRead=  0  0  0  0  0  0  0  0  0  0  0  0  0  0  0  0  0  0  0  0
 ITRead=  0  0  0  0  0  0  0  0  0  0  0  0  0  0  0  0  0  0  0  0
 ITRead=  0  0  0  0  0  0  0  0  0  0  0  0  0  0  0  0  0  0  0  0
 ITRead=  0  0  0  0  0  0  0  0  0  0  0  0  0  0  0  0
 MicOpt= -1 -1 -1 -1 -1 -1 -1 -1 -1 -1 -1 -1 -1 -1 -1 -1 -1 -1 -1 -1
 MicOpt= -1 -1 -1 -1 -1 -1 -1 -1 -1 -1 -1 -1 -1 -1 -1 -1 -1 -1 -1 -1
 MicOpt= -1 -1 -1 -1 -1 -1 -1 -1 -1 -1 -1 -1 -1 -1 -1 -1 -1 -1 -1 -1
 MicOpt= -1 -1 -1 -1 -1 -1 -1 -1 -1 -1 -1 -1 -1 -1 -1 -1 -1 -1 -1 -1
 MicOpt= -1 -1 -1 -1 -1 -1 -1 -1 -1 -1 -1 -1 -1 -1 -1 -1 -1 -1 -1 -1
 MicOpt= -1 -1 -1 -1 -1 -1 -1 -1 -1 -1 -1 -1 -1 -1 -1 -1 -1 -1 -1 -1
 MicOpt= -1 -1 -1 -1 -1 -1 -1 -1 -1 -1 -1 -1 -1 -1 -1 -1 -1 -1 -1 -1
 MicOpt= -1 -1 -1 -1 -1 -1 -1 -1 -1 -1 -1 -1 -1 -1 -1 -1 -1 -1 -1 -1
 MicOpt= -1 -1 -1 -1 -1 -1 -1 -1 -1 -1 -1 -1 -1 -1 -1 -1
 NAtoms=    176 NQM=      176 NQMF=       0 NMMI=      0 NMMIF=      0
                NMic=       0 NMicF=      0.
                    Isotopes and Nuclear Properties:
 (Nuclear quadrupole moments (NQMom) in fm**2, nuclear magnetic moments (NMagM)
  in nuclear magnetons)

  Atom         1           2           3           4           5           6           7           8           9          10
 IAtWgt=          12          12          12          12          12          14           1          12          12          12
 AtmWgt=  12.0000000  12.0000000  12.0000000  12.0000000  12.0000000  14.0030740   1.0078250  12.0000000  12.0000000  12.0000000
 NucSpn=           0           0           0           0           0           2           1           0           0           0
 AtZEff=  -0.0000000  -0.0000000  -0.0000000  -0.0000000  -0.0000000  -0.0000000  -0.0000000  -0.0000000  -0.0000000  -0.0000000
 NQMom=    0.0000000   0.0000000   0.0000000   0.0000000   0.0000000   2.0440000   0.0000000   0.0000000   0.0000000   0.0000000
 NMagM=    0.0000000   0.0000000   0.0000000   0.0000000   0.0000000   0.4037610   2.7928460   0.0000000   0.0000000   0.0000000
 AtZNuc=   6.0000000   6.0000000   6.0000000   6.0000000   6.0000000   7.0000000   1.0000000   6.0000000   6.0000000   6.0000000

  Atom        11          12          13          14          15          16          17          18          19          20
 IAtWgt=          12          12           1           1           1          12          12          12          12          12
 AtmWgt=  12.0000000  12.0000000   1.0078250   1.0078250   1.0078250  12.0000000  12.0000000  12.0000000  12.0000000  12.0000000
 NucSpn=           0           0           1           1           1           0           0           0           0           0
 AtZEff=  -0.0000000  -0.0000000  -0.0000000  -0.0000000  -0.0000000  -0.0000000  -0.0000000  -0.0000000  -0.0000000  -0.0000000
 NQMom=    0.0000000   0.0000000   0.0000000   0.0000000   0.0000000   0.0000000   0.0000000   0.0000000   0.0000000   0.0000000
 NMagM=    0.0000000   0.0000000   2.7928460   2.7928460   2.7928460   0.0000000   0.0000000   0.0000000   0.0000000   0.0000000
 AtZNuc=   6.0000000   6.0000000   1.0000000   1.0000000   1.0000000   6.0000000   6.0000000   6.0000000   6.0000000   6.0000000

  Atom        21          22          23          24          25          26          27          28          29          30
 IAtWgt=           1          12           1          12           1           1           1          19          12           1
 AtmWgt=   1.0078250  12.0000000   1.0078250  12.0000000   1.0078250   1.0078250   1.0078250  18.9984032  12.0000000   1.0078250
 NucSpn=           1           0           1           0           1           1           1           1           0           1
 AtZEff=  -0.0000000  -0.0000000  -0.0000000  -0.0000000  -0.0000000  -0.0000000  -0.0000000  -0.0000000  -0.0000000  -0.0000000
 NQMom=    0.0000000   0.0000000   0.0000000   0.0000000   0.0000000   0.0000000   0.0000000   0.0000000   0.0000000   0.0000000
 NMagM=    2.7928460   0.0000000   2.7928460   0.0000000   2.7928460   2.7928460   2.7928460   2.6288670   0.0000000   2.7928460
 AtZNuc=   1.0000000   6.0000000   1.0000000   6.0000000   1.0000000   1.0000000   1.0000000   9.0000000   6.0000000   1.0000000

  Atom        31          32          33          34          35          36          37          38          39          40
 IAtWgt=           1           1          12          12          12           1           1          12           1           1
 AtmWgt=   1.0078250   1.0078250  12.0000000  12.0000000  12.0000000   1.0078250   1.0078250  12.0000000   1.0078250   1.0078250
 NucSpn=           1           1           0           0           0           1           1           0           1           1
 AtZEff=  -0.0000000  -0.0000000  -0.0000000  -0.0000000  -0.0000000  -0.0000000  -0.0000000  -0.0000000  -0.0000000  -0.0000000
 NQMom=    0.0000000   0.0000000   0.0000000   0.0000000   0.0000000   0.0000000   0.0000000   0.0000000   0.0000000   0.0000000
 NMagM=    2.7928460   2.7928460   0.0000000   0.0000000   0.0000000   2.7928460   2.7928460   0.0000000   2.7928460   2.7928460
 AtZNuc=   1.0000000   1.0000000   6.0000000   6.0000000   6.0000000   1.0000000   1.0000000   6.0000000   1.0000000   1.0000000

  Atom        41          42          43          44          45          46          47          48          49          50
 IAtWgt=           1           1           1           1          14          16         127           1          12          12
 AtmWgt=   1.0078250   1.0078250   1.0078250   1.0078250  14.0030740  15.9949146 126.9004000   1.0078250  12.0000000  12.0000000
 NucSpn=           1           1           1           1           2           0           5           1           0           0
 AtZEff=  -0.0000000  -0.0000000  -0.0000000  -0.0000000  -0.0000000  -0.0000000  -0.0000000  -0.0000000  -0.0000000  -0.0000000
 NQMom=    0.0000000   0.0000000   0.0000000   0.0000000   2.0440000   0.0000000 -71.0000000   0.0000000   0.0000000   0.0000000
 NMagM=    2.7928460   2.7928460   2.7928460   2.7928460   0.4037610   0.0000000   2.8132800   2.7928460   0.0000000   0.0000000
 AtZNuc=   1.0000000   1.0000000   1.0000000   1.0000000   7.0000000   8.0000000  53.0000000   1.0000000   6.0000000   6.0000000

  Atom        51          52          53          54          55          56          57          58          59          60
 IAtWgt=          12          12          12          12           1           1          12          12           1           1
 AtmWgt=  12.0000000  12.0000000  12.0000000  12.0000000   1.0078250   1.0078250  12.0000000  12.0000000   1.0078250   1.0078250
 NucSpn=           0           0           0           0           1           1           0           0           1           1
 AtZEff=  -0.0000000  -0.0000000  -0.0000000  -0.0000000  -0.0000000  -0.0000000  -0.0000000  -0.0000000  -0.0000000  -0.0000000
 NQMom=    0.0000000   0.0000000   0.0000000   0.0000000   0.0000000   0.0000000   0.0000000   0.0000000   0.0000000   0.0000000
 NMagM=    0.0000000   0.0000000   0.0000000   0.0000000   2.7928460   2.7928460   0.0000000   0.0000000   2.7928460   2.7928460
 AtZNuc=   6.0000000   6.0000000   6.0000000   6.0000000   1.0000000   1.0000000   6.0000000   6.0000000   1.0000000   1.0000000

  Atom        61          62          63          64          65          66          67          68          69          70
 IAtWgt=          12          12           1          12          12          12          12          12          12          12
 AtmWgt=  12.0000000  12.0000000   1.0078250  12.0000000  12.0000000  12.0000000  12.0000000  12.0000000  12.0000000  12.0000000
 NucSpn=           0           0           1           0           0           0           0           0           0           0
 AtZEff=  -0.0000000  -0.0000000  -0.0000000  -0.0000000  -0.0000000  -0.0000000  -0.0000000  -0.0000000  -0.0000000  -0.0000000
 NQMom=    0.0000000   0.0000000   0.0000000   0.0000000   0.0000000   0.0000000   0.0000000   0.0000000   0.0000000   0.0000000
 NMagM=    0.0000000   0.0000000   2.7928460   0.0000000   0.0000000   0.0000000   0.0000000   0.0000000   0.0000000   0.0000000
 AtZNuc=   6.0000000   6.0000000   1.0000000   6.0000000   6.0000000   6.0000000   6.0000000   6.0000000   6.0000000   6.0000000

  Atom        71          72          73          74          75          76          77          78          79          80
 IAtWgt=          12          12           1           1          12           1           1           1          32          16
 AtmWgt=  12.0000000  12.0000000   1.0078250   1.0078250  12.0000000   1.0078250   1.0078250   1.0078250  31.9720718  15.9949146
 NucSpn=           0           0           1           1           0           1           1           1           0           0
 AtZEff=  -0.0000000  -0.0000000  -0.0000000  -0.0000000  -0.0000000  -0.0000000  -0.0000000  -0.0000000  -0.0000000  -0.0000000
 NQMom=    0.0000000   0.0000000   0.0000000   0.0000000   0.0000000   0.0000000   0.0000000   0.0000000   0.0000000   0.0000000
 NMagM=    0.0000000   0.0000000   2.7928460   2.7928460   0.0000000   2.7928460   2.7928460   2.7928460   0.0000000   0.0000000
 AtZNuc=   6.0000000   6.0000000   1.0000000   1.0000000   6.0000000   1.0000000   1.0000000   1.0000000  16.0000000   8.0000000

  Atom        81          82          83          84          85          86          87          88          89          90
 IAtWgt=          16          32          16          16          14          12          12          12          12          12
 AtmWgt=  15.9949146  31.9720718  15.9949146  15.9949146  14.0030740  12.0000000  12.0000000  12.0000000  12.0000000  12.0000000
 NucSpn=           0           0           0           0           2           0           0           0           0           0
 AtZEff=  -0.0000000  -0.0000000  -0.0000000  -0.0000000  -0.0000000  -0.0000000  -0.0000000  -0.0000000  -0.0000000  -0.0000000
 NQMom=    0.0000000   0.0000000   0.0000000   0.0000000   2.0440000   0.0000000   0.0000000   0.0000000   0.0000000   0.0000000
 NMagM=    0.0000000   0.0000000   0.0000000   0.0000000   0.4037610   0.0000000   0.0000000   0.0000000   0.0000000   0.0000000
 AtZNuc=   8.0000000  16.0000000   8.0000000   8.0000000   7.0000000   6.0000000   6.0000000   6.0000000   6.0000000   6.0000000

  Atom        91          92          93          94          95          96          97          98          99         100
 IAtWgt=          12          12          12          12           1          12           1           1           1          12
 AtmWgt=  12.0000000  12.0000000  12.0000000  12.0000000   1.0078250  12.0000000   1.0078250   1.0078250   1.0078250  12.0000000
 NucSpn=           0           0           0           0           1           0           1           1           1           0
 AtZEff=  -0.0000000  -0.0000000  -0.0000000  -0.0000000  -0.0000000  -0.0000000  -0.0000000  -0.0000000  -0.0000000  -0.0000000
 NQMom=    0.0000000   0.0000000   0.0000000   0.0000000   0.0000000   0.0000000   0.0000000   0.0000000   0.0000000   0.0000000
 NMagM=    0.0000000   0.0000000   0.0000000   0.0000000   2.7928460   0.0000000   2.7928460   2.7928460   2.7928460   0.0000000
 AtZNuc=   6.0000000   6.0000000   6.0000000   6.0000000   1.0000000   6.0000000   1.0000000   1.0000000   1.0000000   6.0000000

  Atom       101         102         103         104         105         106         107         108         109         110
 IAtWgt=          12          12          12          12           1          12           1           1           1          12
 AtmWgt=  12.0000000  12.0000000  12.0000000  12.0000000   1.0078250  12.0000000   1.0078250   1.0078250   1.0078250  12.0000000
 NucSpn=           0           0           0           0           1           0           1           1           1           0
 AtZEff=  -0.0000000  -0.0000000  -0.0000000  -0.0000000  -0.0000000  -0.0000000  -0.0000000  -0.0000000  -0.0000000  -0.0000000
 NQMom=    0.0000000   0.0000000   0.0000000   0.0000000   0.0000000   0.0000000   0.0000000   0.0000000   0.0000000   0.0000000
 NMagM=    0.0000000   0.0000000   0.0000000   0.0000000   2.7928460   0.0000000   2.7928460   2.7928460   2.7928460   0.0000000
 AtZNuc=   6.0000000   6.0000000   6.0000000   6.0000000   1.0000000   6.0000000   1.0000000   1.0000000   1.0000000   6.0000000

  Atom       111         112         113         114         115         116         117         118         119         120
 IAtWgt=          19          19          19          12          19          19          19          14          12          12
 AtmWgt=  18.9984032  18.9984032  18.9984032  12.0000000  18.9984032  18.9984032  18.9984032  14.0030740  12.0000000  12.0000000
 NucSpn=           1           1           1           0           1           1           1           2           0           0
 AtZEff=  -0.0000000  -0.0000000  -0.0000000  -0.0000000  -0.0000000  -0.0000000  -0.0000000  -0.0000000  -0.0000000  -0.0000000
 NQMom=    0.0000000   0.0000000   0.0000000   0.0000000   0.0000000   0.0000000   0.0000000   2.0440000   0.0000000   0.0000000
 NMagM=    2.6288670   2.6288670   2.6288670   0.0000000   2.6288670   2.6288670   2.6288670   0.4037610   0.0000000   0.0000000
 AtZNuc=   9.0000000   9.0000000   9.0000000   6.0000000   9.0000000   9.0000000   9.0000000   7.0000000   6.0000000   6.0000000

  Atom       121         122         123         124         125         126         127         128         129         130
 IAtWgt=          12          12          16          16           1           1           1           1          12          12
 AtmWgt=  12.0000000  12.0000000  15.9949146  15.9949146   1.0078250   1.0078250   1.0078250   1.0078250  12.0000000  12.0000000
 NucSpn=           0           0           0           0           1           1           1           1           0           0
 AtZEff=  -0.0000000  -0.0000000  -0.0000000  -0.0000000  -0.0000000  -0.0000000  -0.0000000  -0.0000000  -0.0000000  -0.0000000
 NQMom=    0.0000000   0.0000000   0.0000000   0.0000000   0.0000000   0.0000000   0.0000000   0.0000000   0.0000000   0.0000000
 NMagM=    0.0000000   0.0000000   0.0000000   0.0000000   2.7928460   2.7928460   2.7928460   2.7928460   0.0000000   0.0000000
 AtZNuc=   6.0000000   6.0000000   8.0000000   8.0000000   1.0000000   1.0000000   1.0000000   1.0000000   6.0000000   6.0000000

  Atom       131         132         133         134         135         136         137         138         139         140
 IAtWgt=          12          12          12          14           1          12          12          12          12          12
 AtmWgt=  12.0000000  12.0000000  12.0000000  14.0030740   1.0078250  12.0000000  12.0000000  12.0000000  12.0000000  12.0000000
 NucSpn=           0           0           0           2           1           0           0           0           0           0
 AtZEff=  -0.0000000  -0.0000000  -0.0000000  -0.0000000  -0.0000000  -0.0000000  -0.0000000  -0.0000000  -0.0000000  -0.0000000
 NQMom=    0.0000000   0.0000000   0.0000000   2.0440000   0.0000000   0.0000000   0.0000000   0.0000000   0.0000000   0.0000000
 NMagM=    0.0000000   0.0000000   0.0000000   0.4037610   2.7928460   0.0000000   0.0000000   0.0000000   0.0000000   0.0000000
 AtZNuc=   6.0000000   6.0000000   6.0000000   7.0000000   1.0000000   6.0000000   6.0000000   6.0000000   6.0000000   6.0000000

  Atom       141         142         143         144         145         146         147         148         149         150
 IAtWgt=           1           1           1          12          12          12          12          12           1          12
 AtmWgt=   1.0078250   1.0078250   1.0078250  12.0000000  12.0000000  12.0000000  12.0000000  12.0000000   1.0078250  12.0000000
 NucSpn=           1           1           1           0           0           0           0           0           1           0
 AtZEff=  -0.0000000  -0.0000000  -0.0000000  -0.0000000  -0.0000000  -0.0000000  -0.0000000  -0.0000000  -0.0000000  -0.0000000
 NQMom=    0.0000000   0.0000000   0.0000000   0.0000000   0.0000000   0.0000000   0.0000000   0.0000000   0.0000000   0.0000000
 NMagM=    2.7928460   2.7928460   2.7928460   0.0000000   0.0000000   0.0000000   0.0000000   0.0000000   2.7928460   0.0000000
 AtZNuc=   1.0000000   1.0000000   1.0000000   6.0000000   6.0000000   6.0000000   6.0000000   6.0000000   1.0000000   6.0000000

  Atom       151         152         153         154         155         156         157         158         159         160
 IAtWgt=           1          12           1           1           1          19          12           1           1           1
 AtmWgt=   1.0078250  12.0000000   1.0078250   1.0078250   1.0078250  18.9984032  12.0000000   1.0078250   1.0078250   1.0078250
 NucSpn=           1           0           1           1           1           1           0           1           1           1
 AtZEff=  -0.0000000  -0.0000000  -0.0000000  -0.0000000  -0.0000000  -0.0000000  -0.0000000  -0.0000000  -0.0000000  -0.0000000
 NQMom=    0.0000000   0.0000000   0.0000000   0.0000000   0.0000000   0.0000000   0.0000000   0.0000000   0.0000000   0.0000000
 NMagM=    2.7928460   0.0000000   2.7928460   2.7928460   2.7928460   2.6288670   0.0000000   2.7928460   2.7928460   2.7928460
 AtZNuc=   1.0000000   6.0000000   1.0000000   1.0000000   1.0000000   9.0000000   6.0000000   1.0000000   1.0000000   1.0000000

  Atom       161         162         163         164         165         166         167         168         169         170
 IAtWgt=          12          12          12           1           1          12           1           1           1           1
 AtmWgt=  12.0000000  12.0000000  12.0000000   1.0078250   1.0078250  12.0000000   1.0078250   1.0078250   1.0078250   1.0078250
 NucSpn=           0           0           0           1           1           0           1           1           1           1
 AtZEff=  -0.0000000  -0.0000000  -0.0000000  -0.0000000  -0.0000000  -0.0000000  -0.0000000  -0.0000000  -0.0000000  -0.0000000
 NQMom=    0.0000000   0.0000000   0.0000000   0.0000000   0.0000000   0.0000000   0.0000000   0.0000000   0.0000000   0.0000000
 NMagM=    0.0000000   0.0000000   0.0000000   2.7928460   2.7928460   0.0000000   2.7928460   2.7928460   2.7928460   2.7928460
 AtZNuc=   6.0000000   6.0000000   6.0000000   1.0000000   1.0000000   6.0000000   1.0000000   1.0000000   1.0000000   1.0000000

  Atom       171         172         173         174         175         176
 IAtWgt=           1           1          14          16           1           1
 AtmWgt=   1.0078250   1.0078250  14.0030740  15.9949146   1.0078250   1.0078250
 NucSpn=           1           1           2           0           1           1
 AtZEff=  -0.0000000  -0.0000000  -0.0000000  -0.0000000  -0.0000000  -0.0000000
 NQMom=    0.0000000   0.0000000   2.0440000   0.0000000   0.0000000   0.0000000
 NMagM=    2.7928460   2.7928460   0.4037610   0.0000000   2.7928460   2.7928460
 AtZNuc=   1.0000000   1.0000000   7.0000000   8.0000000   1.0000000   1.0000000
 Leave Link  101 at Sat Feb  8 11:08:24 2025, MaxMem=  7247757312 cpu:               1.4 elap:               0.1
 (Enter /ihome/crc/install/gaussian/c01/avx2/tar/g16/l202.exe)
 Symmetry turned off by external request.
 Stoichiometry    C86H65F8IN6O8S2
 Framework group  C1[X(C86H65F8IN6O8S2)]
 Deg. of freedom   522
 Full point group                 C1      NOp   1
                          Input orientation:                          
 ---------------------------------------------------------------------
 Center     Atomic      Atomic             Coordinates (Angstroms)
 Number     Number       Type             X           Y           Z
 ---------------------------------------------------------------------
      1          6           0        0.685520   -1.940160   -1.704329
      2          6           0       -0.093069   -1.199880   -0.811233
      3          6           0       -0.801622   -0.085700   -1.314284
      4          6           0       -0.743762    0.179162   -2.671828
      5          6           0        0.021266   -0.663715   -3.516635
      6          7           0        0.718503   -1.686553   -3.013966
      7          1           0       -1.269032    1.051272   -3.053078
      8          6           0        1.575250   -3.063688   -1.266215
      9          6           0        2.920486   -3.167234   -1.696596
     10          6           0        3.642495   -4.335944   -1.420813
     11          6           0        1.781061   -5.272870   -0.210522
     12          6           0        3.075859   -5.387842   -0.702986
     13          1           0        4.682212   -4.401298   -1.747583
     14          1           0        3.657680   -6.288523   -0.503102
     15          1           0        1.305252   -6.046140    0.391551
     16          6           0        1.072582   -4.115639   -0.500040
     17          6           0        3.637696   -2.034316   -2.346155
     18          6           0        3.549803   -0.748486   -1.792880
     19          6           0        4.486346   -2.244463   -3.440533
     20          6           0        4.302849    0.301902   -2.314395
     21          1           0        2.901327   -0.578228   -0.930771
     22          6           0        5.242189   -1.193346   -3.961633
     23          1           0        4.554041   -3.239250   -3.887384
     24          6           0        5.157666    0.079169   -3.396907
     25          1           0        4.214886    1.293253   -1.863062
     26          1           0        5.899376   -1.371443   -4.815343
     27          1           0        5.751124    0.900224   -3.803601
     28          9           0       -0.182139   -4.026811   -0.028898
     29          6           0       -1.593080    0.802168   -0.399635
     30          1           0       -1.931131    1.708979   -0.918696
     31          1           0       -2.479808    0.268265   -0.014820
     32          1           0       -0.971441    1.101263    0.456948
     33          6           0        1.122610   -1.144774   -5.654195
     34          6           0       -0.308552    0.773631   -5.505702
     35          6           0        2.312571   -0.203154   -5.783207
     36          1           0        0.719323   -1.370831   -6.654379
     37          1           0        1.413746   -2.077678   -5.162883
     38          6           0        0.918280    1.670504   -5.638444
     39          1           0       -0.695787    0.547531   -6.512340
     40          1           0       -1.109544    1.273756   -4.951834
     41          1           0        3.094454   -0.639770   -6.420961
     42          1           0        2.739150   -0.023817   -4.777437
     43          1           0        0.668398    2.598412   -6.172770
     44          1           0        1.288411    1.935379   -4.628334
     45          7           0        0.074550   -0.484661   -4.881936
     46          8           0        1.926778    1.020586   -6.376550
     47         53           0       -2.784154   -2.699520   -1.128474
     48          1           0       -0.051716   -1.405132    0.261051
     49          6           0        2.426170    4.705271    5.783830
     50          6           0        2.773214    4.120822    4.589122
     51          6           0        1.939642    4.257188    3.443211
     52          6           0        0.727886    4.994989    3.572369
     53          6           0        0.398765    5.597000    4.819556
     54          6           0        1.231124    5.458513    5.901590
     55          1           0        3.075729    4.585113    6.652258
     56          1           0        3.691197    3.536874    4.519785
     57          6           0        2.261132    3.658470    2.179677
     58          6           0       -0.139251    5.104393    2.461519
     59          1           0       -0.530765    6.164797    4.894864
     60          1           0        0.973848    5.920186    6.856171
     61          6           0        0.148114    4.484630    1.258675
     62          6           0        1.368001    3.746914    1.126045
     63          1           0       -1.063477    5.677825    2.557920
     64          6           0        3.566333    2.925050    2.051941
     65          6           0        3.621738    1.553202    1.880901
     66          6           0        4.778182    3.692513    2.063691
     67          6           0        4.872546    0.870925    1.745758
     68          6           0        6.024332    3.014948    1.937689
     69          6           0        4.787651    5.113032    2.157380
     70          6           0        6.041075    1.609455    1.786168
     71          6           0        7.236218    3.760966    1.944627
     72          6           0        5.972982    5.808958    2.153303
     73          1           0        3.844441    5.655791    2.220072
     74          1           0        6.998496    1.095825    1.683314
     75          6           0        7.212313    5.128439    2.054670
     76          1           0        8.180490    3.220967    1.851597
     77          1           0        5.959533    6.897956    2.219938
     78          1           0        8.143743    5.696702    2.055328
     79         16           0        1.725761    2.758544   -0.331816
     80          8           0        3.063473    3.104052   -0.719068
     81          8           0        0.707303    2.962639   -1.312903
     82         16           0        2.067609    0.721827    1.583127
     83          8           0        1.183482    1.099953    2.659132
     84          8           0        2.291337   -0.689310    1.461264
     85          7           0        1.609902    1.273576    0.190870
     86          6           0       -0.805579    4.646169    0.201626
     87          6           0       -1.655743    4.857348   -0.637230
     88          6           0        5.020052   -0.547729    1.577121
     89          6           0        5.308495   -1.719056    1.445955
     90          6           0        5.653237   -3.100308    1.280794
     91          6           0        6.696316   -3.492708    0.416629
     92          6           0        4.961120   -4.091818    1.991617
     93          6           0        7.028304   -4.836371    0.271566
     94          6           0        5.303468   -5.433458    1.850020
     95          1           0        4.149409   -3.794988    2.655163
     96          6           0        6.334165   -5.809816    0.990699
     97          1           0        7.835198   -5.122291   -0.403287
     98          1           0        4.752123   -6.190360    2.410433
     99          1           0        6.601342   -6.861235    0.876237
    100          6           0       -2.578129    5.078961   -1.707974
    101          6           0       -3.845311    5.654985   -1.492130
    102          6           0       -2.203801    4.732284   -3.016393
    103          6           0       -4.707600    5.887800   -2.560011
    104          6           0       -3.068437    4.971651   -4.081150
    105          1           0       -1.221756    4.283764   -3.174327
    106          6           0       -4.317812    5.550773   -3.856966
    107          1           0       -5.684952    6.335661   -2.378414
    108          1           0       -2.763114    4.704804   -5.094227
    109          1           0       -4.994786    5.739309   -4.690990
    110          6           0       -4.253040    6.032302   -0.091106
    111          9           0       -4.181120    4.995193    0.754257
    112          9           0       -5.510729    6.478739   -0.044394
    113          9           0       -3.474647    6.991525    0.418131
    114          6           0        7.452042   -2.442633   -0.357016
    115          9           0        6.650563   -1.724386   -1.143025
    116          9           0        8.389800   -2.983167   -1.140679
    117          9           0        8.077557   -1.579896    0.454888
    118          7           0       -4.569145   -3.679433   -0.992856
    119          6           0       -4.977984   -4.323219    0.156595
    120          6           0       -6.155964   -5.207255   -0.193399
    121          6           0       -6.579683   -4.746847   -1.585343
    122          6           0       -5.420364   -3.902968   -2.082455
    123          8           0       -5.239724   -3.459688   -3.182639
    124          8           0       -4.450126   -4.203228    1.242280
    125          1           0       -5.779842   -6.241880   -0.196186
    126          1           0       -6.928354   -5.133171    0.580576
    127          1           0       -7.466208   -4.094894   -1.556786
    128          1           0       -6.777423   -5.555709   -2.299005
    129          6           0       -4.369045   -0.747163    2.072567
    130          6           0       -4.093009    0.566151    2.334236
    131          6           0       -2.779115    0.940467    2.729137
    132          6           0       -1.822194   -0.029433    2.915047
    133          6           0       -2.127915   -1.394449    2.667084
    134          7           0       -3.380827   -1.683623    2.233484
    135          1           0       -0.815757    0.261245    3.208015
    136          6           0       -5.691955   -1.278063    1.646319
    137          6           0       -6.385666   -0.855635    0.491598
    138          6           0       -7.591385   -1.488298    0.155521
    139          6           0       -7.467760   -2.903276    2.110508
    140          6           0       -8.127605   -2.496573    0.952575
    141          1           0       -8.116333   -1.166284   -0.745369
    142          1           0       -9.073732   -2.964868    0.675699
    143          1           0       -7.855054   -3.683887    2.765927
    144          6           0       -6.262699   -2.298321    2.419173
    145          6           0       -5.883195    0.228152   -0.406977
    146          6           0       -6.039121    1.575996   -0.059885
    147          6           0       -5.316840   -0.091708   -1.646380
    148          6           0       -5.595562    2.581997   -0.916052
    149          1           0       -6.529859    1.838551    0.879622
    150          6           0       -4.853049    0.914847   -2.493953
    151          1           0       -5.241692   -1.134007   -1.959264
    152          6           0       -4.983724    2.253715   -2.126730
    153          1           0       -5.739204    3.627008   -0.639142
    154          1           0       -4.397047    0.645531   -3.448409
    155          1           0       -4.625004    3.044025   -2.788786
    156          9           0       -5.604417   -2.706416    3.508420
    157          6           0       -2.438544    2.388990    2.889337
    158          1           0       -1.393859    2.519214    3.198605
    159          1           0       -2.588525    2.904265    1.926133
    160          1           0       -3.103440    2.869501    3.622749
    161          6           0       -1.684079   -3.796108    2.704381
    162          6           0        0.102949   -2.173979    3.316383
    163          6           0       -0.631436   -4.700291    3.324437
    164          1           0       -1.834670   -4.058150    1.645897
    165          1           0       -2.639528   -3.940569    3.235289
    166          6           0        1.069126   -3.163987    2.687642
    167          1           0        0.455002   -1.175144    3.037966
    168          1           0        0.108039   -2.247507    4.416307
    169          1           0       -0.919496   -5.744880    3.148169
    170          1           0       -0.604845   -4.543849    4.418545
    171          1           0        1.235705   -2.886328    1.636835
    172          1           0        2.035734   -3.062032    3.204759
    173          7           0       -1.254824   -2.398122    2.818379
    174          8           0        0.634252   -4.511894    2.752253
    175          1           0       -4.871994    1.317850    2.236571
    176          1           0       -3.610813   -2.649132    1.955245
 ---------------------------------------------------------------------
 Rotational constants (GHZ):           0.0172455           0.0131960           0.0105318
 Leave Link  202 at Sat Feb  8 11:08:24 2025, MaxMem=  7247757312 cpu:               1.3 elap:               0.1
 (Enter /ihome/crc/install/gaussian/c01/avx2/tar/g16/l301.exe)
 Standard basis: def2TZVPP (5D, 7F)
 Ernie: Thresh=  0.10000D-02 Tol=  0.10000D-05 Strict=F.
  4392 basis functions,  6860 primitive gaussians,  5018 cartesian basis functions
   408 alpha electrons      408 beta electrons
       nuclear repulsion energy     27756.2713909676 Hartrees.
 IExCor=  402 DFT=T Ex+Corr=B3LYP ExCW=0 ScaHFX=  0.200000
 ScaDFX=  0.800000  0.720000  1.000000  0.810000 ScalE2=  1.000000  1.000000
 IRadAn=      5 IRanWt=     -1 IRanGd=            0 ICorTp=0 IEmpDi=141
 NAtoms=  176 NActive=  176 NUniq=  176 SFac= 1.00D+00 NAtFMM=   60 NAOKFM=T Big=T
 Integral buffers will be    131072 words long.
 Raffenetti 2 integral format.
 Two-electron integral symmetry is turned off.
 R6Disp:  Grimme-D3(BJ) Dispersion energy=       -0.5872499189 Hartrees.
 Nuclear repulsion after empirical dispersion term =    27755.6841410487 Hartrees.
 ------------------------------------------------------------------------------
 Polarizable Continuum Model (PCM)
 =================================
 Model                : PCM.
 Atomic radii         : SMD-Coulomb.
 Polarization charges : Total charges.
 Charge compensation  : None.
 Solution method      : On-the-fly selection.
 Cavity type          : VdW (van der Waals Surface) (Alpha=1.000).
 Cavity algorithm     : GePol (No added spheres)
                        Default sphere list used, NSphG=  176.
                        Lebedev-Laikov grids with approx.  5.0 points / Ang**2.
                        Smoothing algorithm: York/Karplus (Gamma=1.0000).
                        Polarization charges: spherical gaussians, with
                                              point-specific exponents (IZeta= 3).
                        Self-potential: point-specific (ISelfS= 7).
                        Self-field    : sphere-specific E.n sum rule (ISelfD= 2).
 Solvent              : PropylEthanoate, Eps=   5.520500 Eps(inf)=   1.916010
 ------------------------------------------------------------------------------
 GePol: Number of generator spheres                  =     176
 GePol: Total number of spheres                      =     176
 GePol: Number of exposed spheres                    =     175 ( 99.43%)
 GePol: Number of points                             =   12229
 GePol: Average weight of points                     =       0.11
 GePol: Minimum weight of points                     =   0.20D-11
 GePol: Maximum weight of points                     =    0.21501
 GePol: Number of points with low weight             =     827
 GePol: Fraction of low-weight points (<1% of avg)   =       6.76%
 GePol: Cavity surface area                          =   1328.641 Ang**2
 GePol: Cavity volume                                =   1557.180 Ang**3
 ------------------------------------------------------------------------------
 Atomic radii for non-electrostatic terms: SMD-CDS.
 ------------------------------------------------------------------------------
 PCM non-electrostatic energy =        -0.0314379395 Hartrees.
 Nuclear repulsion after PCM non-electrostatic terms =    27755.6527031092 Hartrees.
 Leave Link  301 at Sat Feb  8 11:08:24 2025, MaxMem=  7247757312 cpu:               2.6 elap:               0.1
 (Enter /ihome/crc/install/gaussian/c01/avx2/tar/g16/l302.exe)
 NPDir=0 NMtPBC=     1 NCelOv=     1 NCel=       1 NClECP=     1 NCelD=      1
         NCelK=      1 NCelE2=     1 NClLst=     1 CellRange=     0.0.
 One-electron integrals computed using PRISM.
   1 Symmetry operations used in ECPInt.
 ECPInt:  NShTT= 1316253 NPrTT= 3826671 LenC2=  761210 LenP2D= 1382895.
 LDataN:  DoStor=T MaxTD1= 7 Len=  274
 Number of processors reduced to  10 by ecpmxn.
 NBasis=  4392 RedAO= T EigKep=  1.74D-06  NBF=  4392
 NBsUse=  4392 1.00D-06 EigRej= -1.00D+00 NBFU=  4392
 Precomputing XC quadrature grid using
 IXCGrd= 4 IRadAn=           5 IRanWt=          -1 IRanGd=           0 AccXCQ= 0.00D+00.
 Defaulting to unpruned grid for atomic number  53.
 Generated NRdTot=       0 NPtTot=           0 NUsed=           0 NTot=          32
 NSgBfM=  3670  3634  3650  3663  3670 MxSgAt=   176 MxSgA2=   176.
 Leave Link  302 at Sat Feb  8 11:09:05 2025, MaxMem=  7247757312 cpu:            1212.4 elap:              40.8
 (Enter /ihome/crc/install/gaussian/c01/avx2/tar/g16/l303.exe)
 DipDrv:  MaxL=1.
 Leave Link  303 at Sat Feb  8 11:09:07 2025, MaxMem=  7247757312 cpu:              35.5 elap:               1.6
 (Enter /ihome/crc/install/gaussian/c01/avx2/tar/g16/l401.exe)
 ExpMin= 7.49D-02 ExpMax= 6.07D+04 ExpMxC= 2.07D+03 IAcc=3 IRadAn=         5 AccDes= 0.00D+00
 Harris functional with IExCor=  402 and IRadAn=       5 diagonalized for initial guess.
 HarFok:  IExCor=  402 AccDes= 0.00D+00 IRadAn=         5 IDoV= 1 UseB2=F ITyADJ=14
 ICtDFT=  3500011 ScaDFX=  1.000000  1.000000  1.000000  1.000000
 Defaulting to unpruned grid for atomic number  53.
 FoFCou: FMM=F IPFlag=           0 FMFlag=      100000 FMFlg1=        2001
         NFxFlg=           0 DoJE=T BraDBF=F KetDBF=T FulRan=T
         wScrn=  0.000000 ICntrl=       500 IOpCl=  0 I1Cent=   200000004 NGrid=           0
         NMat0=    1 NMatS0=      1 NMatT0=    0 NMatD0=    1 NMtDS0=    0 NMtDT0=    0
 Symmetry not used in FoFCou.
 Harris En= -6142.05822198922    
 JPrj=0 DoOrth=F DoCkMO=F.
 Leave Link  401 at Sat Feb  8 11:09:43 2025, MaxMem=  7247757312 cpu:            1109.6 elap:              36.0
 (Enter /ihome/crc/install/gaussian/c01/avx2/tar/g16/l502.exe)
 Two-electron integral symmetry not used.
 Closed shell SCF:
 Using DIIS extrapolation, IDIIS=  1040.
 NGot=  7247757312 LenX=  7197201328 LenY=  7172015986
 Requested convergence on RMS density matrix=1.00D-08 within 128 cycles.
 Requested convergence on MAX density matrix=1.00D-06.
 Requested convergence on             energy=1.00D-06.
 No special actions if energy rises.
 Fock matrices will be formed incrementally for  20 cycles.

 Cycle   1  Pass 1  IDiag  1:
 FoFJK:  IHMeth= 1 ICntrl=       0 DoSepK=F KAlg= 0 I1Cent=           0 FoldK=F
 IRaf= 520000000 NMat=       1 IRICut=       1 DoRegI=T DoRafI=F ISym2E= 0 IDoP0=0 IntGTp=1.
 FoFCou: FMM=T IPFlag=           0 FMFlag=      100000 FMFlg1=        2001
         NFxFlg=           0 DoJE=F BraDBF=F KetDBF=F FulRan=T
         wScrn=  0.000000 ICntrl=         0 IOpCl=  0 I1Cent=           0 NGrid=           0
         NMat0=    1 NMatS0=      1 NMatT0=    0 NMatD0=    1 NMtDS0=    0 NMtDT0=    0
 Symmetry not used in FoFCou.
 FMM levels:  10  Number of levels for PrismC:   9
 Defaulting to unpruned grid for atomic number  53.
 Defaulting to unpruned grid for atomic number  53.
 Defaulting to unpruned grid for atomic number  53.
 Defaulting to unpruned grid for atomic number  53.
 Defaulting to unpruned grid for atomic number  53.
 Defaulting to unpruned grid for atomic number  53.
 Defaulting to unpruned grid for atomic number  53.
 Defaulting to unpruned grid for atomic number  53.
 Defaulting to unpruned grid for atomic number  53.
 Defaulting to unpruned grid for atomic number  53.
 Defaulting to unpruned grid for atomic number  53.
 Defaulting to unpruned grid for atomic number  53.
 Defaulting to unpruned grid for atomic number  53.
 Defaulting to unpruned grid for atomic number  53.
 Defaulting to unpruned grid for atomic number  53.
 Defaulting to unpruned grid for atomic number  53.
 Defaulting to unpruned grid for atomic number  53.
 Defaulting to unpruned grid for atomic number  53.
 Defaulting to unpruned grid for atomic number  53.
 Defaulting to unpruned grid for atomic number  53.
 Defaulting to unpruned grid for atomic number  53.
 Defaulting to unpruned grid for atomic number  53.
 Defaulting to unpruned grid for atomic number  53.
 Defaulting to unpruned grid for atomic number  53.
 Defaulting to unpruned grid for atomic number  53.
 Defaulting to unpruned grid for atomic number  53.
 Defaulting to unpruned grid for atomic number  53.
 Defaulting to unpruned grid for atomic number  53.
 Defaulting to unpruned grid for atomic number  53.
 Defaulting to unpruned grid for atomic number  53.
 Defaulting to unpruned grid for atomic number  53.
 Defaulting to unpruned grid for atomic number  53.
 Inv3:  Mode=1 IEnd=   448645323.
 Iteration    1 A*A^-1 deviation from unit magnitude is 4.33D-15 for   9917.
 Iteration    1 A*A^-1 deviation from orthogonality  is 6.22D-15 for   8489   7837.
 Iteration    1 A^-1*A deviation from unit magnitude is 4.44D-15 for   7650.
 Iteration    1 A^-1*A deviation from orthogonality  is 2.15D-14 for   7388   7368.
 E= -6139.33289420699    
 DIIS: error= 9.00D-03 at cycle   1 NSaved=   1.
 NSaved= 1 IEnMin= 1 EnMin= -6139.33289420699     IErMin= 1 ErrMin= 9.00D-03
 ErrMax= 9.00D-03  0.00D+00 EMaxC= 1.00D-01 BMatC= 3.31D+00 BMatP= 3.31D+00
 IDIUse=3 WtCom= 9.10D-01 WtEn= 9.00D-02
 Coeff-Com:  0.100D+01
 Coeff-En:   0.100D+01
 Coeff:      0.100D+01
 Gap=     0.326 Goal=   None    Shift=    0.000
 GapD=    0.326 DampG=1.000 DampE=1.000 DampFc=1.0000 IDamp=-1.
 RMSDP=2.07D-03 MaxDP=1.13D+00              OVMax= 3.79D-01

 Cycle   2  Pass 1  IDiag  1:
 RMSU=  2.05D-03    CP:  1.09D+00
 E= -6136.66522284646     Delta-E=        2.667671360534 Rises=F Damp=F
 DIIS: error= 1.51D-02 at cycle   2 NSaved=   2.
 NSaved= 2 IEnMin= 1 EnMin= -6139.33289420699     IErMin= 1 ErrMin= 9.00D-03
 ErrMax= 1.51D-02  0.00D+00 EMaxC= 1.00D-01 BMatC= 6.59D+00 BMatP= 3.31D+00
 IDIUse=2 WtCom= 0.00D+00 WtEn= 1.00D+00
 Coeff-En:   0.657D+00 0.343D+00
 Coeff:      0.657D+00 0.343D+00
 Gap=     0.088 Goal=   None    Shift=    0.000
 RMSDP=1.51D-03 MaxDP=8.89D-01 DE= 2.67D+00 OVMax= 4.05D-01

 Cycle   3  Pass 1  IDiag  1:
 RMSU=  5.84D-04    CP:  1.01D+00  3.31D-01
 E= -6141.74393800338     Delta-E=       -5.078715156920 Rises=F Damp=F
 DIIS: error= 7.24D-03 at cycle   3 NSaved=   3.
 NSaved= 3 IEnMin= 3 EnMin= -6141.74393800338     IErMin= 3 ErrMin= 7.24D-03
 ErrMax= 7.24D-03  0.00D+00 EMaxC= 1.00D-01 BMatC= 3.02D-01 BMatP= 3.31D+00
 IDIUse=3 WtCom= 9.28D-01 WtEn= 7.24D-02
 Coeff-Com:  0.278D+00 0.177D+00 0.545D+00
 Coeff-En:   0.000D+00 0.000D+00 0.100D+01
 Coeff:      0.258D+00 0.164D+00 0.578D+00
 Gap=     0.153 Goal=   None    Shift=    0.000
 RMSDP=4.86D-04 MaxDP=1.56D-01 DE=-5.08D+00 OVMax= 1.25D-01

 Cycle   4  Pass 1  IDiag  1:
 RMSU=  3.29D-04    CP:  9.94D-01  2.76D-01  4.27D-01
 E= -6141.92861257373     Delta-E=       -0.184674570359 Rises=F Damp=F
 DIIS: error= 5.23D-03 at cycle   4 NSaved=   4.
 NSaved= 4 IEnMin= 4 EnMin= -6141.92861257373     IErMin= 4 ErrMin= 5.23D-03
 ErrMax= 5.23D-03  0.00D+00 EMaxC= 1.00D-01 BMatC= 1.21D-01 BMatP= 3.02D-01
 IDIUse=3 WtCom= 9.48D-01 WtEn= 5.23D-02
 Coeff-Com:  0.754D-01 0.375D-01 0.383D+00 0.504D+00
 Coeff-En:   0.000D+00 0.000D+00 0.288D+00 0.712D+00
 Coeff:      0.715D-01 0.355D-01 0.378D+00 0.515D+00
 Gap=     0.122 Goal=   None    Shift=    0.000
 RMSDP=1.63D-04 MaxDP=7.63D-02 DE=-1.85D-01 OVMax= 6.84D-02

 Cycle   5  Pass 1  IDiag  1:
 RMSU=  9.76D-05    CP:  9.97D-01  2.86D-01  5.72D-01  7.05D-01
 E= -6142.02223346550     Delta-E=       -0.093620891763 Rises=F Damp=F
 DIIS: error= 1.47D-03 at cycle   5 NSaved=   5.
 NSaved= 5 IEnMin= 5 EnMin= -6142.02223346550     IErMin= 5 ErrMin= 1.47D-03
 ErrMax= 1.47D-03  0.00D+00 EMaxC= 1.00D-01 BMatC= 1.20D-02 BMatP= 1.21D-01
 IDIUse=3 WtCom= 9.85D-01 WtEn= 1.47D-02
 Coeff-Com:  0.131D-01 0.639D-03 0.171D+00 0.314D+00 0.501D+00
 Coeff-En:   0.000D+00 0.000D+00 0.000D+00 0.335D-01 0.967D+00
 Coeff:      0.129D-01 0.630D-03 0.168D+00 0.310D+00 0.508D+00
 Gap=     0.119 Goal=   None    Shift=    0.000
 RMSDP=4.95D-05 MaxDP=1.68D-02 DE=-9.36D-02 OVMax= 1.57D-02

 Cycle   6  Pass 1  IDiag  1:
 RMSU=  3.24D-05    CP:  9.98D-01  2.85D-01  5.97D-01  6.85D-01  6.56D-01
 E= -6142.03112753064     Delta-E=       -0.008894065144 Rises=F Damp=F
 DIIS: error= 3.64D-04 at cycle   6 NSaved=   6.
 NSaved= 6 IEnMin= 6 EnMin= -6142.03112753064     IErMin= 6 ErrMin= 3.64D-04
 ErrMax= 3.64D-04  0.00D+00 EMaxC= 1.00D-01 BMatC= 1.51D-03 BMatP= 1.20D-02
 IDIUse=3 WtCom= 9.96D-01 WtEn= 3.64D-03
 Coeff-Com:  0.143D-02-0.319D-02 0.666D-01 0.136D+00 0.317D+00 0.482D+00
 Coeff-En:   0.000D+00 0.000D+00 0.000D+00 0.000D+00 0.883D-01 0.912D+00
 Coeff:      0.143D-02-0.318D-02 0.664D-01 0.135D+00 0.317D+00 0.484D+00
 Gap=     0.119 Goal=   None    Shift=    0.000
 RMSDP=1.49D-05 MaxDP=4.43D-03 DE=-8.89D-03 OVMax= 5.95D-03

 Cycle   7  Pass 1  IDiag  1:
 RMSU=  1.17D-05    CP:  9.98D-01  2.85D-01  5.93D-01  6.96D-01  6.59D-01
                    CP:  7.47D-01
 E= -6142.03228477021     Delta-E=       -0.001157239567 Rises=F Damp=F
 DIIS: error= 8.99D-05 at cycle   7 NSaved=   7.
 NSaved= 7 IEnMin= 7 EnMin= -6142.03228477021     IErMin= 7 ErrMin= 8.99D-05
 ErrMax= 8.99D-05  0.00D+00 EMaxC= 1.00D-01 BMatC= 1.55D-04 BMatP= 1.51D-03
 IDIUse=1 WtCom= 1.00D+00 WtEn= 0.00D+00
 Coeff-Com: -0.448D-03-0.215D-02 0.215D-01 0.452D-01 0.134D+00 0.296D+00
 Coeff-Com:  0.506D+00
 Coeff:     -0.448D-03-0.215D-02 0.215D-01 0.452D-01 0.134D+00 0.296D+00
 Coeff:      0.506D+00
 Gap=     0.119 Goal=   None    Shift=    0.000
 RMSDP=6.07D-06 MaxDP=1.58D-03 DE=-1.16D-03 OVMax= 1.98D-03

 Cycle   8  Pass 1  IDiag  1:
 RMSU=  3.97D-06    CP:  9.98D-01  2.85D-01  5.96D-01  6.92D-01  6.75D-01
                    CP:  7.35D-01  6.92D-01
 E= -6142.03240969755     Delta-E=       -0.000124927337 Rises=F Damp=F
 DIIS: error= 1.90D-05 at cycle   8 NSaved=   8.
 NSaved= 8 IEnMin= 8 EnMin= -6142.03240969755     IErMin= 8 ErrMin= 1.90D-05
 ErrMax= 1.90D-05  0.00D+00 EMaxC= 1.00D-01 BMatC= 1.26D-05 BMatP= 1.55D-04
 IDIUse=1 WtCom= 1.00D+00 WtEn= 0.00D+00
 Coeff-Com: -0.329D-03-0.910D-03 0.574D-02 0.120D-01 0.449D-01 0.119D+00
 Coeff-Com:  0.284D+00 0.536D+00
 Coeff:     -0.329D-03-0.910D-03 0.574D-02 0.120D-01 0.449D-01 0.119D+00
 Coeff:      0.284D+00 0.536D+00
 Gap=     0.119 Goal=   None    Shift=    0.000
 RMSDP=2.15D-06 MaxDP=5.77D-04 DE=-1.25D-04 OVMax= 7.05D-04

 Cycle   9  Pass 1  IDiag  1:
 RMSU=  1.33D-06    CP:  9.98D-01  2.85D-01  5.94D-01  6.94D-01  6.71D-01
                    CP:  7.36D-01  7.23D-01  7.51D-01
 E= -6142.03241974713     Delta-E=       -0.000010049582 Rises=F Damp=F
 DIIS: error= 8.53D-06 at cycle   9 NSaved=   9.
 NSaved= 9 IEnMin= 9 EnMin= -6142.03241974713     IErMin= 9 ErrMin= 8.53D-06
 ErrMax= 8.53D-06  0.00D+00 EMaxC= 1.00D-01 BMatC= 1.69D-06 BMatP= 1.26D-05
 IDIUse=1 WtCom= 1.00D+00 WtEn= 0.00D+00
 Coeff-Com: -0.127D-03-0.249D-03 0.647D-03 0.130D-02 0.955D-02 0.323D-01
 Coeff-Com:  0.988D-01 0.310D+00 0.548D+00
 Coeff:     -0.127D-03-0.249D-03 0.647D-03 0.130D-02 0.955D-02 0.323D-01
 Coeff:      0.988D-01 0.310D+00 0.548D+00
 Gap=     0.119 Goal=   None    Shift=    0.000
 RMSDP=7.32D-07 MaxDP=2.51D-04 DE=-1.00D-05 OVMax= 3.39D-04

 Cycle  10  Pass 1  IDiag  1:
 RMSU=  5.10D-07    CP:  9.98D-01  2.85D-01  5.95D-01  6.93D-01  6.73D-01
                    CP:  7.41D-01  7.27D-01  7.53D-01  7.55D-01
 E= -6142.03242115505     Delta-E=       -0.000001407927 Rises=F Damp=F
 DIIS: error= 3.83D-06 at cycle  10 NSaved=  10.
 NSaved=10 IEnMin=10 EnMin= -6142.03242115505     IErMin=10 ErrMin= 3.83D-06
 ErrMax= 3.83D-06  0.00D+00 EMaxC= 1.00D-01 BMatC= 2.79D-07 BMatP= 1.69D-06
 IDIUse=1 WtCom= 1.00D+00 WtEn= 0.00D+00
 Coeff-Com: -0.496D-04-0.439D-04-0.298D-03-0.619D-03 0.832D-03 0.688D-02
 Coeff-Com:  0.284D-01 0.129D+00 0.342D+00 0.494D+00
 Coeff:     -0.496D-04-0.439D-04-0.298D-03-0.619D-03 0.832D-03 0.688D-02
 Coeff:      0.284D-01 0.129D+00 0.342D+00 0.494D+00
 Gap=     0.119 Goal=   None    Shift=    0.000
 RMSDP=3.05D-07 MaxDP=1.62D-04 DE=-1.41D-06 OVMax= 1.23D-04

 Cycle  11  Pass 1  IDiag  1:
 RMSU=  1.97D-07    CP:  9.98D-01  2.85D-01  5.95D-01  6.93D-01  6.73D-01
                    CP:  7.41D-01  7.27D-01  7.81D-01  8.06D-01  7.25D-01
 E= -6142.03242139795     Delta-E=       -0.000000242901 Rises=F Damp=F
 DIIS: error= 1.15D-06 at cycle  11 NSaved=  11.
 NSaved=11 IEnMin=11 EnMin= -6142.03242139795     IErMin=11 ErrMin= 1.15D-06
 ErrMax= 1.15D-06  0.00D+00 EMaxC= 1.00D-01 BMatC= 2.75D-08 BMatP= 2.79D-07
 IDIUse=1 WtCom= 1.00D+00 WtEn= 0.00D+00
 Coeff-Com: -0.191D-04 0.182D-05-0.244D-03-0.466D-03-0.446D-03 0.822D-03
 Coeff-Com:  0.617D-02 0.414D-01 0.140D+00 0.290D+00 0.523D+00
 Coeff:     -0.191D-04 0.182D-05-0.244D-03-0.466D-03-0.446D-03 0.822D-03
 Coeff:      0.617D-02 0.414D-01 0.140D+00 0.290D+00 0.523D+00
 Gap=     0.119 Goal=   None    Shift=    0.000
 RMSDP=1.16D-07 MaxDP=4.19D-05 DE=-2.43D-07 OVMax= 4.69D-05

 Cycle  12  Pass 1  IDiag  1:
 RMSU=  8.69D-08    CP:  9.98D-01  2.85D-01  5.95D-01  6.93D-01  6.73D-01
                    CP:  7.42D-01  7.30D-01  7.82D-01  8.03D-01  7.68D-01
                    CP:  7.36D-01
 E= -6142.03242142312     Delta-E=       -0.000000025160 Rises=F Damp=F
 DIIS: error= 5.27D-07 at cycle  12 NSaved=  12.
 NSaved=12 IEnMin=12 EnMin= -6142.03242142312     IErMin=12 ErrMin= 5.27D-07
 ErrMax= 5.27D-07  0.00D+00 EMaxC= 1.00D-01 BMatC= 4.43D-09 BMatP= 2.75D-08
 IDIUse=1 WtCom= 1.00D+00 WtEn= 0.00D+00
 Coeff-Com: -0.521D-05 0.970D-05-0.123D-03-0.212D-03-0.454D-03-0.575D-03
 Coeff-Com: -0.479D-03 0.617D-02 0.349D-01 0.101D+00 0.320D+00 0.539D+00
 Coeff:     -0.521D-05 0.970D-05-0.123D-03-0.212D-03-0.454D-03-0.575D-03
 Coeff:     -0.479D-03 0.617D-02 0.349D-01 0.101D+00 0.320D+00 0.539D+00
 Gap=     0.119 Goal=   None    Shift=    0.000
 RMSDP=5.32D-08 MaxDP=2.54D-05 DE=-2.52D-08 OVMax= 1.93D-05

 Cycle  13  Pass 1  IDiag  1:
 RMSU=  2.95D-08    CP:  9.98D-01  2.85D-01  5.95D-01  6.93D-01  6.73D-01
                    CP:  7.42D-01  7.30D-01  7.83D-01  8.12D-01  7.79D-01
                    CP:  8.47D-01  8.00D-01
 E= -6142.03242142715     Delta-E=       -0.000000004035 Rises=F Damp=F
 DIIS: error= 1.92D-07 at cycle  13 NSaved=  13.
 NSaved=13 IEnMin=13 EnMin= -6142.03242142715     IErMin=13 ErrMin= 1.92D-07
 ErrMax= 1.92D-07  0.00D+00 EMaxC= 1.00D-01 BMatC= 5.52D-10 BMatP= 4.43D-09
 IDIUse=1 WtCom= 1.00D+00 WtEn= 0.00D+00
 Coeff-Com: -0.522D-06 0.535D-05-0.338D-04-0.445D-04-0.201D-03-0.481D-03
 Coeff-Com: -0.134D-02-0.346D-02-0.402D-02 0.710D-02 0.961D-01 0.306D+00
 Coeff-Com:  0.600D+00
 Coeff:     -0.522D-06 0.535D-05-0.338D-04-0.445D-04-0.201D-03-0.481D-03
 Coeff:     -0.134D-02-0.346D-02-0.402D-02 0.710D-02 0.961D-01 0.306D+00
 Coeff:      0.600D+00
 Gap=     0.119 Goal=   None    Shift=    0.000
 RMSDP=1.68D-08 MaxDP=6.72D-06 DE=-4.03D-09 OVMax= 9.21D-06

 Cycle  14  Pass 1  IDiag  1:
 RMSU=  1.01D-08    CP:  9.98D-01  2.85D-01  5.95D-01  6.93D-01  6.73D-01
                    CP:  7.42D-01  7.30D-01  7.83D-01  8.13D-01  7.92D-01
                    CP:  8.66D-01  8.74D-01  8.72D-01
 E= -6142.03242142671     Delta-E=        0.000000000437 Rises=F Damp=F
 DIIS: error= 1.06D-07 at cycle  14 NSaved=  14.
 NSaved=14 IEnMin=13 EnMin= -6142.03242142715     IErMin=14 ErrMin= 1.06D-07
 ErrMax= 1.06D-07  0.00D+00 EMaxC= 1.00D-01 BMatC= 1.02D-10 BMatP= 5.52D-10
 IDIUse=1 WtCom= 1.00D+00 WtEn= 0.00D+00
 Coeff-Com:  0.348D-06 0.144D-05-0.222D-05 0.514D-05-0.513D-04-0.177D-03
 Coeff-Com: -0.639D-03-0.272D-02-0.739D-02-0.111D-01 0.672D-02 0.952D-01
 Coeff-Com:  0.363D+00 0.557D+00
 Coeff:      0.348D-06 0.144D-05-0.222D-05 0.514D-05-0.513D-04-0.177D-03
 Coeff:     -0.639D-03-0.272D-02-0.739D-02-0.111D-01 0.672D-02 0.952D-01
 Coeff:      0.363D+00 0.557D+00
 Gap=     0.119 Goal=   None    Shift=    0.000
 RMSDP=6.70D-09 MaxDP=3.31D-06 DE= 4.37D-10 OVMax= 3.54D-06

 Cycle  15  Pass 1  IDiag  1:
 RMSU=  4.15D-09    CP:  9.98D-01  2.85D-01  5.95D-01  6.93D-01  6.73D-01
                    CP:  7.42D-01  7.30D-01  7.84D-01  8.13D-01  7.94D-01
                    CP:  8.77D-01  8.92D-01  9.31D-01  8.21D-01
 E= -6142.03242142807     Delta-E=       -0.000000001361 Rises=F Damp=F
 DIIS: error= 4.29D-08 at cycle  15 NSaved=  15.
 NSaved=15 IEnMin=15 EnMin= -6142.03242142807     IErMin=15 ErrMin= 4.29D-08
 ErrMax= 4.29D-08  0.00D+00 EMaxC= 1.00D-01 BMatC= 1.65D-11 BMatP= 1.02D-10
 IDIUse=1 WtCom= 1.00D+00 WtEn= 0.00D+00
 Coeff-Com:  0.297D-06 0.318D-06 0.154D-05 0.648D-05-0.126D-04-0.558D-04
 Coeff-Com: -0.230D-03-0.120D-02-0.383D-02-0.701D-02-0.526D-02 0.259D-01
 Coeff-Com:  0.161D+00 0.351D+00 0.479D+00
 Coeff:      0.297D-06 0.318D-06 0.154D-05 0.648D-05-0.126D-04-0.558D-04
 Coeff:     -0.230D-03-0.120D-02-0.383D-02-0.701D-02-0.526D-02 0.259D-01
 Coeff:      0.161D+00 0.351D+00 0.479D+00
 Gap=     0.119 Goal=   None    Shift=    0.000
 RMSDP=2.40D-09 MaxDP=7.76D-07 DE=-1.36D-09 OVMax= 8.10D-07

 Error on total polarization charges =  0.08771
 SCF Done:  E(RB3LYP) =  -6142.03242143     A.U. after   15 cycles
            NFock= 15  Conv=0.24D-08     -V/T= 2.0355
 KE= 5.931221694650D+03 PE=-6.983435458767D+04 EE= 3.000544776848D+04
 SMD-CDS (non-electrostatic) energy       (kcal/mol) =     -19.73
 (included in total energy above)
 Leave Link  502 at Sat Feb  8 13:04:45 2025, MaxMem=  7247757312 cpu:          219325.5 elap:            6901.0
 (Enter /ihome/crc/install/gaussian/c01/avx2/tar/g16/l601.exe)
 Copying SCF densities to generalized density rwf, IOpCl= 0 IROHF=0.
 Hyperfine terms turned off by default for NAtoms > 100.

 **********************************************************************

            Population analysis using the SCF Density.

 **********************************************************************

 Alpha  occ. eigenvalues --  -89.02991 -89.02605 -24.72159 -24.71748 -24.71711
 Alpha  occ. eigenvalues --  -24.71330 -24.71193 -24.70905 -24.70560 -24.68945
 Alpha  occ. eigenvalues --  -19.13340 -19.12666 -19.12556 -19.11781 -19.09388
 Alpha  occ. eigenvalues --  -19.09263 -19.08831 -19.08759 -14.39378 -14.38170
 Alpha  occ. eigenvalues --  -14.36934 -14.32634 -14.28779 -14.27923 -10.42815
 Alpha  occ. eigenvalues --  -10.41929 -10.30422 -10.29808 -10.28822 -10.27739
 Alpha  occ. eigenvalues --  -10.25654 -10.25188 -10.23417 -10.22300 -10.21908
 Alpha  occ. eigenvalues --  -10.21554 -10.21483 -10.21471 -10.21338 -10.21266
 Alpha  occ. eigenvalues --  -10.21241 -10.21195 -10.21116 -10.21050 -10.20880
 Alpha  occ. eigenvalues --  -10.20844 -10.20528 -10.20444 -10.20443 -10.20362
 Alpha  occ. eigenvalues --  -10.20348 -10.20308 -10.19846 -10.19790 -10.19750
 Alpha  occ. eigenvalues --  -10.19673 -10.19509 -10.19508 -10.19335 -10.19311
 Alpha  occ. eigenvalues --  -10.19298 -10.19280 -10.19221 -10.19023 -10.19023
 Alpha  occ. eigenvalues --  -10.19020 -10.19005 -10.18954 -10.18930 -10.18868
 Alpha  occ. eigenvalues --  -10.18798 -10.18714 -10.18575 -10.18570 -10.18503
 Alpha  occ. eigenvalues --  -10.18446 -10.18429 -10.18423 -10.18414 -10.18331
 Alpha  occ. eigenvalues --  -10.18108 -10.18073 -10.18023 -10.17976 -10.17971
 Alpha  occ. eigenvalues --  -10.17896 -10.17809 -10.17783 -10.17751 -10.17751
 Alpha  occ. eigenvalues --  -10.17713 -10.17656 -10.17616 -10.17584 -10.17455
 Alpha  occ. eigenvalues --  -10.17450 -10.17423 -10.17148 -10.17124 -10.17123
 Alpha  occ. eigenvalues --  -10.16898 -10.16660 -10.16089 -10.16043 -10.16025
 Alpha  occ. eigenvalues --  -10.15813 -10.15692 -10.15389 -10.15238 -10.14794
 Alpha  occ. eigenvalues --   -8.07524  -8.07115  -6.86022  -6.03830  -6.03761
 Alpha  occ. eigenvalues --   -6.03743  -6.03443  -6.03346  -6.03323  -4.88939
 Alpha  occ. eigenvalues --   -4.87058  -4.87024  -1.93663  -1.93086  -1.93056
 Alpha  occ. eigenvalues --   -1.91470  -1.91469  -1.32820  -1.31928  -1.25223
 Alpha  occ. eigenvalues --   -1.23797  -1.23414  -1.22930  -1.22914  -1.22506
 Alpha  occ. eigenvalues --   -1.11100  -1.09489  -1.08494  -1.06854  -1.04663
 Alpha  occ. eigenvalues --   -1.03444  -1.02867  -0.98747  -0.98443  -0.96563
 Alpha  occ. eigenvalues --   -0.96034  -0.95887  -0.91008  -0.90231  -0.89001
 Alpha  occ. eigenvalues --   -0.88806  -0.88462  -0.88117  -0.87935  -0.86358
 Alpha  occ. eigenvalues --   -0.85800  -0.84601  -0.84068  -0.83782  -0.83687
 Alpha  occ. eigenvalues --   -0.81694  -0.81504  -0.80977  -0.80454  -0.79673
 Alpha  occ. eigenvalues --   -0.79219  -0.78902  -0.78665  -0.78507  -0.78139
 Alpha  occ. eigenvalues --   -0.77987  -0.76946  -0.76481  -0.76458  -0.76388
 Alpha  occ. eigenvalues --   -0.76376  -0.76218  -0.74821  -0.74607  -0.74288
 Alpha  occ. eigenvalues --   -0.73780  -0.73361  -0.73288  -0.72751  -0.72457
 Alpha  occ. eigenvalues --   -0.71747  -0.71637  -0.71285  -0.70742  -0.70711
 Alpha  occ. eigenvalues --   -0.70140  -0.70100  -0.69343  -0.68389  -0.68015
 Alpha  occ. eigenvalues --   -0.67673  -0.66299  -0.65692  -0.65108  -0.65093
 Alpha  occ. eigenvalues --   -0.64651  -0.63997  -0.63755  -0.63650  -0.63225
 Alpha  occ. eigenvalues --   -0.63147  -0.62977  -0.62620  -0.62550  -0.62232
 Alpha  occ. eigenvalues --   -0.61950  -0.61803  -0.61516  -0.60934  -0.60734
 Alpha  occ. eigenvalues --   -0.60425  -0.60060  -0.59962  -0.59543  -0.59209
 Alpha  occ. eigenvalues --   -0.58939  -0.58834  -0.58297  -0.58207  -0.57846
 Alpha  occ. eigenvalues --   -0.57379  -0.57024  -0.56582  -0.56282  -0.55453
 Alpha  occ. eigenvalues --   -0.55245  -0.54915  -0.54787  -0.54454  -0.53791
 Alpha  occ. eigenvalues --   -0.53240  -0.53047  -0.52583  -0.52429  -0.52419
 Alpha  occ. eigenvalues --   -0.51975  -0.51872  -0.51457  -0.51437  -0.51364
 Alpha  occ. eigenvalues --   -0.51094  -0.50895  -0.50591  -0.50353  -0.50182
 Alpha  occ. eigenvalues --   -0.49308  -0.49176  -0.49044  -0.48715  -0.48596
 Alpha  occ. eigenvalues --   -0.48456  -0.48350  -0.48082  -0.47938  -0.47885
 Alpha  occ. eigenvalues --   -0.47675  -0.47634  -0.47530  -0.47452  -0.47427
 Alpha  occ. eigenvalues --   -0.47234  -0.47104  -0.46864  -0.46692  -0.46684
 Alpha  occ. eigenvalues --   -0.46512  -0.46373  -0.46349  -0.46121  -0.45844
 Alpha  occ. eigenvalues --   -0.45801  -0.45670  -0.45413  -0.45344  -0.45113
 Alpha  occ. eigenvalues --   -0.45109  -0.44898  -0.44670  -0.44523  -0.44325
 Alpha  occ. eigenvalues --   -0.44218  -0.43981  -0.43941  -0.43842  -0.43722
 Alpha  occ. eigenvalues --   -0.43606  -0.43521  -0.43408  -0.43380  -0.43163
 Alpha  occ. eigenvalues --   -0.43084  -0.43010  -0.42945  -0.42896  -0.42848
 Alpha  occ. eigenvalues --   -0.42760  -0.42716  -0.42438  -0.42383  -0.42326
 Alpha  occ. eigenvalues --   -0.42316  -0.42146  -0.41927  -0.41678  -0.41477
 Alpha  occ. eigenvalues --   -0.41241  -0.41199  -0.41113  -0.40952  -0.40762
 Alpha  occ. eigenvalues --   -0.40631  -0.40579  -0.40446  -0.40234  -0.40091
 Alpha  occ. eigenvalues --   -0.40006  -0.39993  -0.39739  -0.39562  -0.39201
 Alpha  occ. eigenvalues --   -0.38990  -0.38971  -0.38865  -0.38814  -0.38313
 Alpha  occ. eigenvalues --   -0.38043  -0.37957  -0.37847  -0.37807  -0.37347
 Alpha  occ. eigenvalues --   -0.37310  -0.37193  -0.36995  -0.36832  -0.36552
 Alpha  occ. eigenvalues --   -0.36463  -0.36344  -0.36311  -0.36158  -0.36066
 Alpha  occ. eigenvalues --   -0.36019  -0.35957  -0.35823  -0.35755  -0.35552
 Alpha  occ. eigenvalues --   -0.35204  -0.35129  -0.34936  -0.34811  -0.34588
 Alpha  occ. eigenvalues --   -0.34377  -0.34363  -0.34168  -0.34102  -0.33886
 Alpha  occ. eigenvalues --   -0.33423  -0.32921  -0.32699  -0.32555  -0.32301
 Alpha  occ. eigenvalues --   -0.32084  -0.31865  -0.31748  -0.31535  -0.31095
 Alpha  occ. eigenvalues --   -0.31026  -0.30840  -0.30782  -0.30225  -0.30002
 Alpha  occ. eigenvalues --   -0.29758  -0.28951  -0.28602  -0.28287  -0.27981
 Alpha  occ. eigenvalues --   -0.27872  -0.27722  -0.27654  -0.27382  -0.27261
 Alpha  occ. eigenvalues --   -0.27141  -0.27001  -0.26774  -0.26631  -0.26471
 Alpha  occ. eigenvalues --   -0.26158  -0.25924  -0.25734  -0.25562  -0.25493
 Alpha  occ. eigenvalues --   -0.25215  -0.24800  -0.24768  -0.24618  -0.24089
 Alpha  occ. eigenvalues --   -0.23728  -0.23594  -0.23094  -0.22882  -0.21914
 Alpha  occ. eigenvalues --   -0.21736  -0.21349  -0.19129
 Alpha virt. eigenvalues --   -0.07228  -0.06785  -0.06670  -0.06599  -0.05553
 Alpha virt. eigenvalues --   -0.05007  -0.04035  -0.03600  -0.03492  -0.03434
 Alpha virt. eigenvalues --   -0.03253  -0.03004  -0.02447  -0.01933  -0.01802
 Alpha virt. eigenvalues --   -0.01584  -0.01309  -0.00832  -0.00013   0.00333
 Alpha virt. eigenvalues --    0.00500   0.00833   0.01170   0.01723   0.02371
 Alpha virt. eigenvalues --    0.03064   0.03509   0.03767   0.04217   0.04321
 Alpha virt. eigenvalues --    0.04668   0.04719   0.04968   0.05164   0.05611
 Alpha virt. eigenvalues --    0.05850   0.05926   0.06019   0.06226   0.06332
 Alpha virt. eigenvalues --    0.06547   0.06678   0.06753   0.06948   0.07073
 Alpha virt. eigenvalues --    0.07198   0.07232   0.07511   0.07770   0.07871
 Alpha virt. eigenvalues --    0.07955   0.08154   0.08328   0.08491   0.08732
 Alpha virt. eigenvalues --    0.08984   0.09102   0.09252   0.09338   0.09457
 Alpha virt. eigenvalues --    0.09528   0.09696   0.09840   0.09979   0.10014
 Alpha virt. eigenvalues --    0.10151   0.10230   0.10341   0.10541   0.10649
 Alpha virt. eigenvalues --    0.10745   0.10810   0.10901   0.10986   0.11121
 Alpha virt. eigenvalues --    0.11288   0.11445   0.11566   0.11701   0.11804
 Alpha virt. eigenvalues --    0.11849   0.12014   0.12202   0.12261   0.12436
 Alpha virt. eigenvalues --    0.12539   0.12601   0.12681   0.12777   0.12902
 Alpha virt. eigenvalues --    0.13069   0.13125   0.13211   0.13295   0.13429
 Alpha virt. eigenvalues --    0.13496   0.13608   0.13805   0.13988   0.14049
 Alpha virt. eigenvalues --    0.14116   0.14172   0.14219   0.14342   0.14446
 Alpha virt. eigenvalues --    0.14592   0.14739   0.14793   0.14849   0.15028
 Alpha virt. eigenvalues --    0.15162   0.15217   0.15361   0.15392   0.15577
 Alpha virt. eigenvalues --    0.15687   0.15800   0.15829   0.15941   0.16283
 Alpha virt. eigenvalues --    0.16362   0.16433   0.16466   0.16523   0.16639
 Alpha virt. eigenvalues --    0.17009   0.17132   0.17276   0.17331   0.17452
 Alpha virt. eigenvalues --    0.17609   0.17723   0.17844   0.17909   0.18085
 Alpha virt. eigenvalues --    0.18291   0.18406   0.18586   0.18605   0.18802
 Alpha virt. eigenvalues --    0.18842   0.18967   0.19084   0.19144   0.19347
 Alpha virt. eigenvalues --    0.19383   0.19516   0.19687   0.19778   0.19902
 Alpha virt. eigenvalues --    0.20027   0.20091   0.20231   0.20365   0.20479
 Alpha virt. eigenvalues --    0.20583   0.20635   0.20750   0.20860   0.20933
 Alpha virt. eigenvalues --    0.21041   0.21089   0.21172   0.21233   0.21308
 Alpha virt. eigenvalues --    0.21353   0.21516   0.21655   0.21775   0.21966
 Alpha virt. eigenvalues --    0.22074   0.22150   0.22291   0.22308   0.22464
 Alpha virt. eigenvalues --    0.22543   0.22701   0.22757   0.22857   0.23002
 Alpha virt. eigenvalues --    0.23109   0.23169   0.23371   0.23388   0.23497
 Alpha virt. eigenvalues --    0.23612   0.23790   0.23931   0.24045   0.24127
 Alpha virt. eigenvalues --    0.24250   0.24269   0.24294   0.24413   0.24627
 Alpha virt. eigenvalues --    0.24651   0.24738   0.24827   0.24959   0.25065
 Alpha virt. eigenvalues --    0.25237   0.25467   0.25487   0.25671   0.25695
 Alpha virt. eigenvalues --    0.25758   0.25863   0.26042   0.26115   0.26321
 Alpha virt. eigenvalues --    0.26438   0.26539   0.26564   0.26753   0.26807
 Alpha virt. eigenvalues --    0.26887   0.26932   0.27072   0.27175   0.27357
 Alpha virt. eigenvalues --    0.27532   0.27583   0.27684   0.27833   0.27992
 Alpha virt. eigenvalues --    0.28120   0.28198   0.28403   0.28419   0.28495
 Alpha virt. eigenvalues --    0.28539   0.28802   0.28814   0.28852   0.29050
 Alpha virt. eigenvalues --    0.29248   0.29365   0.29466   0.29615   0.29705
 Alpha virt. eigenvalues --    0.29833   0.29981   0.30000   0.30112   0.30144
 Alpha virt. eigenvalues --    0.30263   0.30337   0.30458   0.30622   0.30678
 Alpha virt. eigenvalues --    0.30853   0.30990   0.31060   0.31105   0.31297
 Alpha virt. eigenvalues --    0.31360   0.31437   0.31567   0.31613   0.31928
 Alpha virt. eigenvalues --    0.31952   0.32051   0.32088   0.32310   0.32375
 Alpha virt. eigenvalues --    0.32436   0.32506   0.32653   0.32716   0.32873
 Alpha virt. eigenvalues --    0.32934   0.33008   0.33051   0.33151   0.33355
 Alpha virt. eigenvalues --    0.33480   0.33552   0.33617   0.33721   0.33796
 Alpha virt. eigenvalues --    0.33814   0.33904   0.34014   0.34080   0.34230
 Alpha virt. eigenvalues --    0.34401   0.34504   0.34632   0.34761   0.34787
 Alpha virt. eigenvalues --    0.34818   0.35026   0.35096   0.35198   0.35404
 Alpha virt. eigenvalues --    0.35431   0.35703   0.35764   0.35787   0.35868
 Alpha virt. eigenvalues --    0.36074   0.36107   0.36322   0.36332   0.36403
 Alpha virt. eigenvalues --    0.36480   0.36636   0.36700   0.36964   0.37027
 Alpha virt. eigenvalues --    0.37137   0.37153   0.37251   0.37339   0.37583
 Alpha virt. eigenvalues --    0.37699   0.37779   0.37933   0.38066   0.38102
 Alpha virt. eigenvalues --    0.38164   0.38377   0.38429   0.38580   0.38630
 Alpha virt. eigenvalues --    0.38729   0.38792   0.38820   0.38990   0.39035
 Alpha virt. eigenvalues --    0.39072   0.39208   0.39314   0.39414   0.39602
 Alpha virt. eigenvalues --    0.39662   0.39755   0.39849   0.39915   0.40053
 Alpha virt. eigenvalues --    0.40218   0.40385   0.40427   0.40443   0.40507
[...]
 Alpha virt. eigenvalues --    6.03207   6.04301   6.05300   6.06336   6.06455
 Alpha virt. eigenvalues --    6.07000   6.07758   6.07940   6.08165   6.08824
 Alpha virt. eigenvalues --    6.09563   6.09990   6.10794   6.11215   6.12034
 Alpha virt. eigenvalues --    6.13071   6.14231   6.15274   6.15949   6.16263
 Alpha virt. eigenvalues --    6.18165   6.19216   6.20812   6.21068   6.22515
 Alpha virt. eigenvalues --    6.23412   6.23915   6.24085   6.25281   6.25397
 Alpha virt. eigenvalues --    6.25803   6.31302   6.35822   6.36648   6.38613
 Alpha virt. eigenvalues --    6.40272   6.42213   6.42325   6.44192   6.44444
 Alpha virt. eigenvalues --    6.45278   6.45573   6.46644   6.47602   6.48614
 Alpha virt. eigenvalues --    6.51387   6.53246   6.55118   6.55685   6.56324
 Alpha virt. eigenvalues --    6.56811   6.57912   6.60977   6.62552   6.62907
 Alpha virt. eigenvalues --    6.65919   6.68221   6.69605   6.70487   6.71240
 Alpha virt. eigenvalues --    6.73266   6.76042   6.77556   6.78717   6.78776
 Alpha virt. eigenvalues --    6.79233   6.79601   6.79953   6.80840   6.82277
 Alpha virt. eigenvalues --    6.82758   6.83023   6.83301   6.83635   6.83790
 Alpha virt. eigenvalues --    6.84115   6.84248   6.84634   6.84689   6.85518
 Alpha virt. eigenvalues --    6.85541   6.85697   6.86141   6.86164   6.86458
 Alpha virt. eigenvalues --    6.86799   6.86808   6.86926   6.87289   6.87690
 Alpha virt. eigenvalues --    6.87975   6.88161   6.88556   6.88944   6.89125
 Alpha virt. eigenvalues --    6.91867   6.93141   6.93968   6.94931   6.95852
 Alpha virt. eigenvalues --    6.97056   6.97889   6.97990   6.98036   6.98730
 Alpha virt. eigenvalues --    6.98839   6.99732   7.01220   7.02027   7.04172
 Alpha virt. eigenvalues --    7.04769   7.05350   7.05438   7.06541   7.08915
 Alpha virt. eigenvalues --    7.10003   7.10213   7.10340   7.10685   7.11021
 Alpha virt. eigenvalues --    7.12375   7.12884   7.13674   7.14071   7.14226
 Alpha virt. eigenvalues --    7.14407   7.16922   7.20136   7.20663   7.23092
 Alpha virt. eigenvalues --    7.24997   7.27611   7.30943   7.36052   7.36438
 Alpha virt. eigenvalues --    7.36903   7.36997   7.38467   7.43313   7.43872
 Alpha virt. eigenvalues --    7.44065   7.45706   7.46246   7.46971   7.48238
 Alpha virt. eigenvalues --    7.49748   7.56749   7.58435   7.58835   7.59996
 Alpha virt. eigenvalues --    7.62339   7.63449   7.64075   7.64471   7.90777
 Alpha virt. eigenvalues --    7.94506   8.00358   8.06569   8.27186   8.29242
 Alpha virt. eigenvalues --    8.30418   8.31142   8.31372   8.32322   8.40908
 Alpha virt. eigenvalues --    8.43176   8.45572   8.46060   8.49779   8.50528
 Alpha virt. eigenvalues --    8.57280   8.57885   8.58690   8.61575   8.67941
 Alpha virt. eigenvalues --    8.68394   8.75199   8.76350   8.77631   8.78477
 Alpha virt. eigenvalues --    8.79428   8.81821   8.89593   8.91580   8.95185
 Alpha virt. eigenvalues --    8.96604   8.99256   9.02403   9.02828   9.04071
 Alpha virt. eigenvalues --    9.05777   9.08527   9.12236   9.12289   9.18057
 Alpha virt. eigenvalues --    9.18398   9.24690   9.25012   9.57455   9.58455
 Alpha virt. eigenvalues --    9.77195   9.87263  10.16063  10.19127  22.58391
 Alpha virt. eigenvalues --   22.66746  22.67599  22.71345  22.76140  22.77072
 Alpha virt. eigenvalues --   22.86782  22.89324  22.89517  22.94139  22.95907
 Alpha virt. eigenvalues --   22.99354  23.00589  23.02264  23.03718  23.05203
 Alpha virt. eigenvalues --   23.05703  23.06297  23.07627  23.08349  23.09703
 Alpha virt. eigenvalues --   23.10143  23.10628  23.11025  23.11569  23.11863
 Alpha virt. eigenvalues --   23.13239  23.13860  23.14759  23.15315  23.17183
 Alpha virt. eigenvalues --   23.17615  23.18792  23.18958  23.19576  23.19869
 Alpha virt. eigenvalues --   23.21484  23.21695  23.21903  23.22512  23.22938
 Alpha virt. eigenvalues --   23.23411  23.24025  23.24918  23.25808  23.27037
 Alpha virt. eigenvalues --   23.27701  23.28862  23.29661  23.30134  23.31437
 Alpha virt. eigenvalues --   23.31620  23.33154  23.34479  23.35085  23.36146
 Alpha virt. eigenvalues --   23.37224  23.39507  23.41149  23.42248  23.43222
 Alpha virt. eigenvalues --   23.44623  23.45801  23.46142  23.47226  23.48103
 Alpha virt. eigenvalues --   23.49395  23.51287  23.52906  23.56106  23.56625
 Alpha virt. eigenvalues --   23.62869  23.63457  23.66506  23.81124  23.81855
 Alpha virt. eigenvalues --   23.81970  23.87281  23.92237  23.93380  24.13357
 Alpha virt. eigenvalues --   24.13479  24.14610  24.17276  24.24015  24.29486
 Alpha virt. eigenvalues --   24.44257  24.49278  32.56151  32.62599  32.82256
 Alpha virt. eigenvalues --   33.11098  33.18964  33.40604  34.65417  34.70795
 Alpha virt. eigenvalues --   34.97650  43.19349  43.97562  43.99371  44.11215
 Alpha virt. eigenvalues --   44.20416  44.21676  44.27619  44.36390  44.40695
 Alpha virt. eigenvalues --   57.16545  57.17608  57.29789  57.40176  57.50283
 Alpha virt. eigenvalues --   57.54046  57.55035  57.61878 117.91195
          Condensed to atoms (all electrons):
 Mulliken charges:
               1
     1  C    0.266785
     2  C   -0.410033
     3  C    0.111019
     4  C   -0.125756
     5  C    0.164649
     6  N   -0.334923
     7  H    0.131283
     8  C   -0.077793
     9  C    0.167099
    10  C   -0.214835
    11  C   -0.204296
    12  C   -0.132502
    13  H    0.147224
    14  H    0.147111
    15  H    0.134158
    16  C    0.309453
    17  C    0.108267
    18  C   -0.276859
    19  C   -0.240190
    20  C   -0.130091
    21  H    0.217726
    22  C   -0.158862
    23  H    0.134802
    24  C   -0.170202
    25  H    0.153709
    26  H    0.136566
    27  H    0.140180
    28  F   -0.250583
    29  C   -0.296273
    30  H    0.107245
    31  H    0.099194
    32  H    0.105915
    33  C   -0.013013
    34  C   -0.044255
    35  C   -0.009168
    36  H    0.078741
    37  H    0.089637
    38  C    0.005977
    39  H    0.080595
    40  H    0.080900
    41  H    0.086829
    42  H    0.101762
    43  H    0.088608
    44  H    0.081817
    45  N   -0.125197
    46  O   -0.355650
    47  I    0.173495
    48  H    0.146970
    49  C   -0.141782
    50  C   -0.181521
    51  C   -0.023609
    52  C   -0.059395
    53  C   -0.141471
    54  C   -0.141152
    55  H    0.154063
    56  H    0.161209
    57  C    0.085966
    58  C   -0.139737
    59  H    0.146816
    60  H    0.152789
    61  C   -0.190766
    62  C   -0.032446
    63  H    0.141206
    64  C    0.051060
    65  C   -0.051829
    66  C   -0.039648
    67  C   -0.136581
    68  C   -0.056506
    69  C   -0.190270
    70  C   -0.096324
    71  C   -0.137149
    72  C   -0.139134
    73  H    0.160855
    74  H    0.144124
    75  C   -0.140216
    76  H    0.145829
    77  H    0.152945
    78  H    0.152226
    79  S    0.892220
    80  O   -0.528999
    81  O   -0.529425
    82  S    0.970496
    83  O   -0.585224
    84  O   -0.581837
    85  N   -0.448005
    86  C    0.130055
    87  C    0.265872
    88  C    0.104576
    89  C    0.241120
    90  C   -0.065206
    91  C   -0.184231
    92  C   -0.186626
    93  C   -0.104899
    94  C   -0.156279
    95  H    0.158033
    96  C   -0.133317
    97  H    0.157042
    98  H    0.152654
    99  H    0.157845
   100  C   -0.094799
   101  C   -0.212384
   102  C   -0.228724
   103  C   -0.082984
   104  C   -0.121487
   105  H    0.168731
   106  C   -0.153585
   107  H    0.158630
   108  H    0.159882
   109  H    0.158698
   110  C    0.599206
   111  F   -0.197504
   112  F   -0.192571
   113  F   -0.188536
   114  C    0.566011
   115  F   -0.172753
   116  F   -0.193060
   117  F   -0.191974
   118  N   -0.166369
   119  C    0.254670
   120  C   -0.075084
   121  C   -0.093575
   122  C    0.193596
   123  O   -0.321246
   124  O   -0.422794
   125  H    0.119213
   126  H    0.099940
   127  H    0.102879
   128  H    0.109192
   129  C    0.228193
   130  C   -0.182772
   131  C    0.022779
   132  C   -0.124590
   133  C    0.182928
   134  N   -0.110268
   135  H    0.155490
   136  C   -0.137249
   137  C    0.106462
   138  C   -0.162011
   139  C   -0.219095
   140  C   -0.138327
   141  H    0.157628
   142  H    0.162743
   143  H    0.150684
   144  C    0.362051
   145  C   -0.012010
   146  C   -0.182157
   147  C   -0.185590
   148  C   -0.138882
   149  H    0.151113
   150  C   -0.205216
   151  H    0.149424
   152  C   -0.108276
   153  H    0.124620
   154  H    0.153749
   155  H    0.165059
   156  F   -0.221368
   157  C   -0.285308
   158  H    0.110657
   159  H    0.120231
   160  H    0.111581
   161  C   -0.070737
   162  C   -0.091336
   163  C   -0.003458
   164  H    0.104084
   165  H    0.107060
   166  C    0.082317
   167  H    0.101066
   168  H    0.117094
   169  H    0.097388
   170  H    0.078770
   171  H    0.074417
   172  H    0.078604
   173  N   -0.057041
   174  O   -0.361112
   175  H    0.151166
   176  H    0.245583
 Sum of Mulliken charges =  -0.00000
 Mulliken charges with hydrogens summed into heavy atoms:
               1
     1  C    0.266785
     2  C   -0.263064
     3  C    0.111019
     4  C    0.005527
     5  C    0.164649
     6  N   -0.334923
     8  C   -0.077793
     9  C    0.167099
    10  C   -0.067611
    11  C   -0.070138
    12  C    0.014609
    16  C    0.309453
    17  C    0.108267
    18  C   -0.059134
    19  C   -0.105388
    20  C    0.023619
    22  C   -0.022296
    24  C   -0.030022
    28  F   -0.250583
    29  C    0.016082
    33  C    0.155364
    34  C    0.117240
    35  C    0.179423
    38  C    0.176402
    45  N   -0.125197
    46  O   -0.355650
    47  I    0.173495
    49  C    0.012280
    50  C   -0.020312
    51  C   -0.023609
    52  C   -0.059395
    53  C    0.005345
    54  C    0.011637
    57  C    0.085966
    58  C    0.001468
    61  C   -0.190766
    62  C   -0.032446
    64  C    0.051060
    65  C   -0.051829
    66  C   -0.039648
    67  C   -0.136581
    68  C   -0.056506
    69  C   -0.029414
    70  C    0.047800
    71  C    0.008681
    72  C    0.013810
    75  C    0.012010
    79  S    0.892220
    80  O   -0.528999
    81  O   -0.529425
    82  S    0.970496
    83  O   -0.585224
    84  O   -0.581837
    85  N   -0.448005
    86  C    0.130055
    87  C    0.265872
    88  C    0.104576
    89  C    0.241120
    90  C   -0.065206
    91  C   -0.184231
    92  C   -0.028593
    93  C    0.052142
    94  C   -0.003626
    96  C    0.024528
   100  C   -0.094799
   101  C   -0.212384
   102  C   -0.059993
   103  C    0.075647
   104  C    0.038395
   106  C    0.005113
   110  C    0.599206
   111  F   -0.197504
   112  F   -0.192571
   113  F   -0.188536
   114  C    0.566011
   115  F   -0.172753
   116  F   -0.193060
   117  F   -0.191974
   118  N   -0.166369
   119  C    0.254670
   120  C    0.144069
   121  C    0.118495
   122  C    0.193596
   123  O   -0.321246
   124  O   -0.422794
   129  C    0.228193
   130  C   -0.031606
   131  C    0.022779
   132  C    0.030899
   133  C    0.182928
   134  N    0.135314
   136  C   -0.137249
   137  C    0.106462
   138  C   -0.004383
   139  C   -0.068411
   140  C    0.024416
   144  C    0.362051
   145  C   -0.012010
   146  C   -0.031044
   147  C   -0.036167
   148  C   -0.014262
   150  C   -0.051467
   152  C    0.056783
   156  F   -0.221368
   157  C    0.057160
   161  C    0.140407
   162  C    0.126824
   163  C    0.172700
   166  C    0.235339
   173  N   -0.057041
   174  O   -0.361112
 Electronic spatial extent (au):  <R**2>=         106779.0385
 Charge=             -0.0000 electrons
 Dipole moment (field-independent basis, Debye):
    X=            -18.1410    Y=             -8.4265    Z=              8.6699  Tot=             21.8006
 Quadrupole moment (field-independent basis, Debye-Ang):
   XX=           -592.7536   YY=           -601.6139   ZZ=           -649.5446
   XY=             24.0801   XZ=             12.1224   YZ=            -10.7302
 Traceless Quadrupole moment (field-independent basis, Debye-Ang):
   XX=             21.8838   YY=             13.0235   ZZ=            -34.9072
   XY=             24.0801   XZ=             12.1224   YZ=            -10.7302
 Octapole moment (field-independent basis, Debye-Ang**2):
  XXX=           -844.2175  YYY=           -632.2849  ZZZ=             52.5913  XYY=           -128.5034
  XXY=           -375.0029  XXZ=             40.4285  XZZ=           -112.6205  YZZ=             83.0432
  YYZ=             80.5489  XYZ=            164.3137
 Hexadecapole moment (field-independent basis, Debye-Ang**3):
 XXXX=         -64697.6535 YYYY=         -45158.4815 ZZZZ=         -26375.5528 XXXY=           3414.6430
 XXXZ=          -1465.8162 YYYX=            919.8284 YYYZ=          -1719.6329 ZZZX=          -1230.5926
 ZZZY=          -1561.4484 XXYY=         -16089.6997 XXZZ=         -16237.4520 YYZZ=         -11477.4887
 XXYZ=           -591.7446 YYXZ=            138.9425 ZZXY=           -511.9275
 N-N= 2.775565270311D+04 E-N=-6.983435467701D+04  KE= 5.931221694650D+03
 Leave Link  601 at Sat Feb  8 13:04:48 2025, MaxMem=  7247757312 cpu:              38.0 elap:               2.2
 (Enter /ihome/crc/install/gaussian/c01/avx2/tar/g16/l9999.exe)
 Unable to Open any file for archive entry.
 1\1\GINC-SMP-N255\SP\RB3LYP\def2TZVPP\C86H65F8I1N6O8S2\BIM12\08-Feb-20
 25\0\\#p b3lyp def2tzvpp scf=maxcycle=128 nosymm scrf=(smd,solvent=pro
 pylethanoate) empiricaldispersion=gd3bj\\alkyneCF3_R-ax-S_01_iodi_comp
 \\0,1\C,0,0.68552,-1.94016,-1.704329\C,0,-0.093069,-1.19988,-0.811233\
 C,0,-0.801622,-0.0857,-1.314284\C,0,-0.743762,0.179162,-2.671828\C,0,0
 .021266,-0.663715,-3.516635\N,0,0.718503,-1.686553,-3.013966\H,0,-1.26
 9032,1.051272,-3.053078\C,0,1.57525,-3.063688,-1.266215\C,0,2.920486,-
 3.167234,-1.696596\C,0,3.642495,-4.335944,-1.420813\C,0,1.781061,-5.27
 287,-0.210522\C,0,3.075859,-5.387842,-0.702986\H,0,4.682212,-4.401298,
 -1.747583\H,0,3.65768,-6.288523,-0.503102\H,0,1.305252,-6.04614,0.3915
 51\C,0,1.072582,-4.115639,-0.50004\C,0,3.637696,-2.034316,-2.346155\C,
 0,3.549803,-0.748486,-1.79288\C,0,4.486346,-2.244463,-3.440533\C,0,4.3
 02849,0.301902,-2.314395\H,0,2.901327,-0.578228,-0.930771\C,0,5.242189
 ,-1.193346,-3.961633\H,0,4.554041,-3.23925,-3.887384\C,0,5.157666,0.07
 9169,-3.396907\H,0,4.214886,1.293253,-1.863062\H,0,5.899376,-1.371443,
 -4.815343\H,0,5.751124,0.900224,-3.803601\F,0,-0.182139,-4.026811,-0.0
 28898\C,0,-1.59308,0.802168,-0.399635\H,0,-1.931131,1.708979,-0.918696
 \H,0,-2.479808,0.268265,-0.01482\H,0,-0.971441,1.101263,0.456948\C,0,1
 .12261,-1.144774,-5.654195\C,0,-0.308552,0.773631,-5.505702\C,0,2.3125
 71,-0.203154,-5.783207\H,0,0.719323,-1.370831,-6.654379\H,0,1.413746,-
 2.077678,-5.162883\C,0,0.91828,1.670504,-5.638444\H,0,-0.695787,0.5475
 31,-6.51234\H,0,-1.109544,1.273756,-4.951834\H,0,3.094454,-0.63977,-6.
 420961\H,0,2.73915,-0.023817,-4.777437\H,0,0.668398,2.598412,-6.17277\
 H,0,1.288411,1.935379,-4.628334\N,0,0.07455,-0.484661,-4.881936\O,0,1.
 926778,1.020586,-6.37655\I,0,-2.784154,-2.69952,-1.128474\H,0,-0.05171
 6,-1.405132,0.261051\C,0,2.42617,4.705271,5.78383\C,0,2.773214,4.12082
 2,4.589122\C,0,1.939642,4.257188,3.443211\C,0,0.727886,4.994989,3.5723
 69\C,0,0.398765,5.597,4.819556\C,0,1.231124,5.458513,5.90159\H,0,3.075
 729,4.585113,6.652258\H,0,3.691197,3.536874,4.519785\C,0,2.261132,3.65
 847,2.179677\C,0,-0.139251,5.104393,2.461519\H,0,-0.530765,6.164797,4.
 894864\H,0,0.973848,5.920186,6.856171\C,0,0.148114,4.48463,1.258675\C,
 0,1.368001,3.746914,1.126045\H,0,-1.063477,5.677825,2.55792\C,0,3.5663
 33,2.92505,2.051941\C,0,3.621738,1.553202,1.880901\C,0,4.778182,3.6925
 13,2.063691\C,0,4.872546,0.870925,1.745758\C,0,6.024332,3.014948,1.937
 689\C,0,4.787651,5.113032,2.15738\C,0,6.041075,1.609455,1.786168\C,0,7
 .236218,3.760966,1.944627\C,0,5.972982,5.808958,2.153303\H,0,3.844441,
 5.655791,2.220072\H,0,6.998496,1.095825,1.683314\C,0,7.212313,5.128439
 ,2.05467\H,0,8.18049,3.220967,1.851597\H,0,5.959533,6.897956,2.219938\
 H,0,8.143743,5.696702,2.055328\S,0,1.725761,2.758544,-0.331816\O,0,3.0
 63473,3.104052,-0.719068\O,0,0.707303,2.962639,-1.312903\S,0,2.067609,
 0.721827,1.583127\O,0,1.183482,1.099953,2.659132\O,0,2.291337,-0.68931
 ,1.461264\N,0,1.609902,1.273576,0.19087\C,0,-0.805579,4.646169,0.20162
 6\C,0,-1.655743,4.857348,-0.63723\C,0,5.020052,-0.547729,1.577121\C,0,
 5.308495,-1.719056,1.445955\C,0,5.653237,-3.100308,1.280794\C,0,6.6963
 16,-3.492708,0.416629\C,0,4.96112,-4.091818,1.991617\C,0,7.028304,-4.8
 36371,0.271566\C,0,5.303468,-5.433458,1.85002\H,0,4.149409,-3.794988,2
 .655163\C,0,6.334165,-5.809816,0.990699\H,0,7.835198,-5.122291,-0.4032
 87\H,0,4.752123,-6.19036,2.410433\H,0,6.601342,-6.861235,0.876237\C,0,
 -2.578129,5.078961,-1.707974\C,0,-3.845311,5.654985,-1.49213\C,0,-2.20
 3801,4.732284,-3.016393\C,0,-4.7076,5.8878,-2.560011\C,0,-3.068437,4.9
 71651,-4.08115\H,0,-1.221756,4.283764,-3.174327\C,0,-4.317812,5.550773
 ,-3.856966\H,0,-5.684952,6.335661,-2.378414\H,0,-2.763114,4.704804,-5.
 094227\H,0,-4.994786,5.739309,-4.69099\C,0,-4.25304,6.032302,-0.091106
 \F,0,-4.18112,4.995193,0.754257\F,0,-5.510729,6.478739,-0.044394\F,0,-
 3.474647,6.991525,0.418131\C,0,7.452042,-2.442633,-0.357016\F,0,6.6505
 63,-1.724386,-1.143025\F,0,8.3898,-2.983167,-1.140679\F,0,8.077557,-1.
 579896,0.454888\N,0,-4.569145,-3.679433,-0.992856\C,0,-4.977984,-4.323
 219,0.156595\C,0,-6.155964,-5.207255,-0.193399\C,0,-6.579683,-4.746847
 ,-1.585343\C,0,-5.420364,-3.902968,-2.082455\O,0,-5.239724,-3.459688,-
 3.182639\O,0,-4.450126,-4.203228,1.24228\H,0,-5.779842,-6.24188,-0.196
 186\H,0,-6.928354,-5.133171,0.580576\H,0,-7.466208,-4.094894,-1.556786
 \H,0,-6.777423,-5.555709,-2.299005\C,0,-4.369045,-0.747163,2.072567\C,
 0,-4.093009,0.566151,2.334236\C,0,-2.779115,0.940467,2.729137\C,0,-1.8
 22194,-0.029433,2.915047\C,0,-2.127915,-1.394449,2.667084\N,0,-3.38082
 7,-1.683623,2.233484\H,0,-0.815757,0.261245,3.208015\C,0,-5.691955,-1.
 278063,1.646319\C,0,-6.385666,-0.855635,0.491598\C,0,-7.591385,-1.4882
 98,0.155521\C,0,-7.46776,-2.903276,2.110508\C,0,-8.127605,-2.496573,0.
 952575\H,0,-8.116333,-1.166284,-0.745369\H,0,-9.073732,-2.964868,0.675
 699\H,0,-7.855054,-3.683887,2.765927\C,0,-6.262699,-2.298321,2.419173\
 C,0,-5.883195,0.228152,-0.406977\C,0,-6.039121,1.575996,-0.059885\C,0,
 -5.31684,-0.091708,-1.64638\C,0,-5.595562,2.581997,-0.916052\H,0,-6.52
 9859,1.838551,0.879622\C,0,-4.853049,0.914847,-2.493953\H,0,-5.241692,
 -1.134007,-1.959264\C,0,-4.983724,2.253715,-2.12673\H,0,-5.739204,3.62
 7008,-0.639142\H,0,-4.397047,0.645531,-3.448409\H,0,-4.625004,3.044025
 ,-2.788786\F,0,-5.604417,-2.706416,3.50842\C,0,-2.438544,2.38899,2.889
 337\H,0,-1.393859,2.519214,3.198605\H,0,-2.588525,2.904265,1.926133\H,
 0,-3.10344,2.869501,3.622749\C,0,-1.684079,-3.796108,2.704381\C,0,0.10
 2949,-2.173979,3.316383\C,0,-0.631436,-4.700291,3.324437\H,0,-1.83467,
 -4.05815,1.645897\H,0,-2.639528,-3.940569,3.235289\C,0,1.069126,-3.163
 987,2.687642\H,0,0.455002,-1.175144,3.037966\H,0,0.108039,-2.247507,4.
 416307\H,0,-0.919496,-5.74488,3.148169\H,0,-0.604845,-4.543849,4.41854
 5\H,0,1.235705,-2.886328,1.636835\H,0,2.035734,-3.062032,3.204759\N,0,
 -1.254824,-2.398122,2.818379\O,0,0.634252,-4.511894,2.752253\H,0,-4.87
 1994,1.31785,2.236571\H,0,-3.610813,-2.649132,1.955245\\Version=ES64L-
 G16RevC.01\HF=-6142.0324214\RMSD=2.396e-09\Dipole=-7.1372049,-3.315250
 9,3.4109872\Quadrupole=16.2700415,9.6826407,-25.9526822,17.9029558,9.0
 127,-7.9776341\PG=C01 [X(C86H65F8I1N6O8S2)]\\@
 The archive entry for this job was punched.


 I HAVE NOT FAILED, I HAVE ONLY DISCOVERED 10,000
 WAYS THAT DIDN'T WORK.  -- THOMAS A. EDISON
 Job cpu time:       2 days 13 hours 35 minutes 44.1 seconds.
 Elapsed time:       0 days  1 hours 56 minutes 22.4 seconds.
 File lengths (MBytes):  RWF=  12612 Int=      0 D2E=      0 Chk=   1111 Scr=      1
 Normal termination of Gaussian 16 at Sat Feb  8 13:04:51 2025.
