 Entering Gaussian System, Link 0=g16
 Initial command:
 /ihome/crc/install/gaussian/c01/avx2/tar/g16/l1.exe "/scratch/slurm-18030575/Gau-21475.inp" -scrdir="/scratch/slurm-18030575/"
 Entering Link 1 = /ihome/crc/install/gaussian/c01/avx2/tar/g16/l1.exe PID=     21476.
  
 Copyright (c) 1988-2019, Gaussian, Inc.  All Rights Reserved.
  
 This is part of the Gaussian(R) 16 program.  It is based on
 the Gaussian(R) 09 system (copyright 2009, Gaussian, Inc.),
 the Gaussian(R) 03 system (copyright 2003, Gaussian, Inc.),
 the Gaussian(R) 98 system (copyright 1998, Gaussian, Inc.),
 the Gaussian(R) 94 system (copyright 1995, Gaussian, Inc.),
 the Gaussian 92(TM) system (copyright 1992, Gaussian, Inc.),
 the Gaussian 90(TM) system (copyright 1990, Gaussian, Inc.),
 the Gaussian 88(TM) system (copyright 1988, Gaussian, Inc.),
 the Gaussian 86(TM) system (copyright 1986, Carnegie Mellon
 University), and the Gaussian 82(TM) system (copyright 1983,
 Carnegie Mellon University). Gaussian is a federally registered
 trademark of Gaussian, Inc.
  
 This software contains proprietary and confidential information,
 including trade secrets, belonging to Gaussian, Inc.
  
 This software is provided under written license and may be
 used, copied, transmitted, or stored only in accord with that
 written license.
  
 The following legend is applicable only to US Government
 contracts under FAR:
  
                    RESTRICTED RIGHTS LEGEND
  
 Use, reproduction and disclosure by the US Government is
 subject to restrictions as set forth in subparagraphs (a)
 and (c) of the Commercial Computer Software - Restricted
 Rights clause in FAR 52.227-19.
  
 Gaussian, Inc.
 340 Quinnipiac St., Bldg. 40, Wallingford CT 06492
  
  
 ---------------------------------------------------------------
 Warning -- This program may not be used in any manner that
 competes with the business of Gaussian, Inc. or will provide
 assistance to any competitor of Gaussian, Inc.  The licensee
 of this program is prohibited from giving any competitor of
 Gaussian, Inc. access to this program.  By using this program,
 the user acknowledges that Gaussian, Inc. is engaged in the
 business of creating and licensing software in the field of
 computational chemistry and represents and warrants to the
 licensee that it is not a competitor of Gaussian, Inc. and that
 it will not use this program in any manner prohibited above.
 ---------------------------------------------------------------
  

 Cite this work as:
 Gaussian 16, Revision C.01,
 M. J. Frisch, G. W. Trucks, H. B. Schlegel, G. E. Scuseria, 
 M. A. Robb, J. R. Cheeseman, G. Scalmani, V. Barone, 
 G. A. Petersson, H. Nakatsuji, X. Li, M. Caricato, A. V. Marenich, 
 J. Bloino, B. G. Janesko, R. Gomperts, B. Mennucci, H. P. Hratchian, 
 J. V. Ortiz, A. F. Izmaylov, J. L. Sonnenberg, D. Williams-Young, 
 F. Ding, F. Lipparini, F. Egidi, J. Goings, B. Peng, A. Petrone, 
 T. Henderson, D. Ranasinghe, V. G. Zakrzewski, J. Gao, N. Rega, 
 G. Zheng, W. Liang, M. Hada, M. Ehara, K. Toyota, R. Fukuda, 
 J. Hasegawa, M. Ishida, T. Nakajima, Y. Honda, O. Kitao, H. Nakai, 
 T. Vreven, K. Throssell, J. A. Montgomery, Jr., J. E. Peralta, 
 F. Ogliaro, M. J. Bearpark, J. J. Heyd, E. N. Brothers, K. N. Kudin, 
 V. N. Staroverov, T. A. Keith, R. Kobayashi, J. Normand, 
 K. Raghavachari, A. P. Rendell, J. C. Burant, S. S. Iyengar, 
 J. Tomasi, M. Cossi, J. M. Millam, M. Klene, C. Adamo, R. Cammi, 
 J. W. Ochterski, R. L. Martin, K. Morokuma, O. Farkas, 
 J. B. Foresman, and D. J. Fox, Gaussian, Inc., Wallingford CT, 2019.
 
 ******************************************
 Gaussian 16:  ES64L-G16RevC.01  3-Jul-2019
                 8-Feb-2025 
 ******************************************
 %nprocshared=32
 Will use up to   32 processors via shared memory.
 %mem=54GB
 ----------------------------------------------------------------------
 #p b3lyp def2tzvpp scf=maxcycle=128 nosymm scrf=(smd,solvent=propyleth
 anoate) empiricaldispersion=gd3bj
 ----------------------------------------------------------------------
 1/38=1,172=1/1;
 2/12=2,15=1,17=6,18=5,40=1/2;
 3/5=44,7=202,11=2,25=1,30=1,70=32201,72=169,74=-5,124=41/1,2,3;
 4//1;
 5/5=2,7=128,38=5,53=169/2;
 6/7=2,8=2,9=2,10=2,28=1/1;
 99/5=1,9=1/99;
 Leave Link    1 at Sat Feb  8 11:08:47 2025, MaxMem=  7247757312 cpu:               0.5 elap:               0.0
 (Enter /ihome/crc/install/gaussian/c01/avx2/tar/g16/l101.exe)
 -----------------------------
 alkyneCF3_S-ax-R_01_iodi_comp
 -----------------------------
 Symbolic Z-matrix:
 Charge =  0 Multiplicity = 1
 C                     1.89831  -2.05562  -0.68618 
 C                     0.50284  -2.17379  -0.64349 
 C                    -0.10739  -2.46784   0.59128 
 C                     0.7041   -2.72146   1.68923 
 C                     2.10997  -2.6648    1.53723 
 N                     2.66277  -2.28051   0.38005 
 H                     0.23926  -2.95557   2.64489 
 C                     2.6294   -1.59852  -1.91066 
 C                     3.93112  -2.05329  -2.24232 
 C                     4.64097  -1.43558  -3.28005 
 C                     2.80987   0.05885  -3.72172 
 C                     4.09726  -0.37778  -4.00587 
 H                     5.6372   -1.80544  -3.52862 
 H                     4.6722    0.09759  -4.80218 
 H                     2.33274   0.87868  -4.25988 
 C                     2.10661  -0.56264  -2.6976 
 C                     4.5952   -3.1902   -1.54391 
 C                     5.92799  -3.0759   -1.12828 
 C                     3.9274   -4.40438  -1.3293 
 C                     6.5689   -4.13675  -0.48484 
 H                     6.45976  -2.1358   -1.29073 
 C                     4.56384  -5.46218  -0.68657 
 H                     2.89206  -4.51246  -1.66022 
 C                     5.88748  -5.33104  -0.25611 
 H                     7.60384  -4.02424  -0.15613 
 H                     4.0239   -6.39659  -0.52149 
 H                     6.38475  -6.15965   0.25144 
 F                     0.86926  -0.12169  -2.47367 
 C                    -1.60523  -2.48771   0.73314 
 H                    -2.10196  -2.37044  -0.23864 
 H                    -1.94344  -3.41795   1.21514 
 H                    -1.92052  -1.64017   1.36216 
 C                     2.55784  -3.10299   3.93331 
 C                     4.40831  -2.79683   2.37588 
 C                     3.44347  -4.083     4.68932 
 H                     1.52458  -3.45963   4.00303 
 H                     2.61103  -2.10719   4.41421 
 C                     5.1887   -3.80313   3.20212 
 H                     4.66576  -2.90766   1.31647 
 H                     4.67907  -1.7701    2.69289 
 H                     3.25261  -5.10635   4.31063 
 H                     3.19805  -4.05606   5.75956 
 H                     5.02478  -4.81798   2.78881 
 H                     6.26281  -3.5764    3.1538 
 N                     2.97923  -3.01568   2.54537 
 O                     4.80636  -3.76931   4.55642 
 I                    -0.13218  -4.91847  -1.52521 
 H                    -0.11039  -1.90475  -1.49923 
 C                    -4.43009   5.92297  -2.13824 
 C                    -4.13368   4.7806   -1.43348 
 C                    -2.78742   4.34077  -1.29067 
 C                    -1.76009   5.09494  -1.92611 
 C                    -2.09493   6.27987  -2.64003 
 C                    -3.40091   6.68916  -2.74009 
 H                    -5.46913   6.24035  -2.23986 
 H                    -4.93947   4.19766  -0.98711 
 C                    -2.436     3.15594  -0.5612 
 C                    -0.42316   4.63854  -1.86478 
 H                    -1.29098   6.84771  -3.11257 
 H                    -3.65254   7.59632  -3.29184 
 C                    -0.08997   3.46774  -1.20976 
 C                    -1.11782   2.72801  -0.53485 
 H                     0.35967   5.2118   -2.36454 
 C                    -3.52941   2.38184   0.12504 
 C                    -3.86689   1.09649  -0.26313 
 C                    -4.17339   2.9721    1.26417 
 C                    -4.81731   0.32383   0.48103 
 C                    -5.18663   2.23738   1.94558 
 C                    -3.82326   4.25841   1.76436 
 C                    -5.47999   0.91472   1.54017 
 C                    -5.85109   2.82087   3.06098 
 C                    -4.4746    4.79344   2.85006 
 H                    -3.02286   4.82235   1.28576 
 H                    -6.21598   0.33571   2.10069 
 C                    -5.50816   4.07461   3.50064 
 H                    -6.6296    2.24333   3.5635 
 H                    -4.18826   5.77973   3.21862 
 H                    -6.01814   4.51562   4.35858 
 S                    -0.80454   1.09501   0.15556 
 O                    -1.46623   1.05963   1.42863 
 O                     0.59894   0.83199   0.18313 
 S                    -2.88289   0.38191  -1.58103 
 O                    -2.85461   1.3576   -2.63136 
 O                    -3.41466  -0.89783  -1.95949 
 N                    -1.48075   0.14809  -0.91226 
 C                     1.28085   3.04717  -1.24447 
 C                     2.44468   2.70519  -1.28521 
 C                    -5.04619  -1.06853   0.22658 
 C                    -5.17787  -2.26325   0.05841 
 C                    -5.14152  -3.64995  -0.30124 
 C                    -5.94493  -4.63209   0.30755 
 C                    -4.237    -4.03986  -1.30428 
 C                    -5.84218  -5.96625  -0.07763 
 C                    -4.13903  -5.37491  -1.6837 
 H                    -3.61998  -3.26725  -1.76717 
 C                    -4.93898  -6.34009  -1.07214 
 H                    -6.46858  -6.71597   0.40576 
 H                    -3.42769  -5.65898  -2.46319 
 H                    -4.85929  -7.38888  -1.36013 
 C                     3.75006   2.12327  -1.17574 
 C                     3.90076   1.01789  -0.32217 
 C                     4.8688    2.5859   -1.89414 
 C                     5.14193   0.40435  -0.18016 
 H                     3.01942   0.64612   0.2053 
 C                     6.10998   1.97416  -1.74076 
 C                     6.2496    0.88696  -0.87796 
 H                     5.23307  -0.46581   0.47326 
 H                     6.9675    2.34609  -2.30186 
 H                     7.22524   0.41272  -0.75991 
 C                     4.69732   3.71459  -2.87281 
 F                     5.85364   4.0653   -3.44236 
 F                     4.19415   4.81288  -2.30162 
 F                     3.86136   3.38173  -3.86562 
 C                    -6.91268  -4.22695   1.38729 
 F                    -7.6105   -5.26761   1.84928 
 F                    -7.7989   -3.32563   0.95105 
 F                    -6.29047  -3.67704   2.43459 
 N                    -0.60432  -6.73425  -2.3424 
 C                    -0.19946  -7.09865  -3.59877 
 C                    -0.80522  -8.44629  -3.93352 
 C                    -1.50159  -8.8921   -2.64901 
 C                    -1.37071  -7.71507  -1.6966 
 O                    -1.81396  -7.60807  -0.58868 
 O                     0.51816  -6.4198   -4.30837 
 H                    -1.50538  -8.29834  -4.76933 
 H                    -0.01209  -9.12452  -4.2753 
 H                    -1.02337  -9.76225  -2.17862 
 H                    -2.56616  -9.12792  -2.7765 
 C                    -1.20546  -5.0939   -6.98137 
 C                    -2.10726  -5.12121  -8.01454 
 C                    -2.01493  -6.14546  -8.99148 
 C                    -0.99659  -7.07492  -8.9165 
 C                    -0.05397  -7.0177   -7.85758 
 N                    -0.25096  -6.06634  -6.91472 
 H                    -0.89484  -7.82444  -9.69761 
 C                    -1.17349  -4.04308  -5.93652 
 C                     0.01604  -3.38891  -5.53788 
 C                    -0.05947  -2.3764   -4.57662 
 C                    -2.4458   -2.65019  -4.36823 
 C                    -1.2703   -2.00016  -4.0024 
 H                     0.85889  -1.85984  -4.30381 
 H                    -1.29934  -1.19353  -3.2678 
 H                    -3.40647  -2.37661  -3.93113 
 C                    -2.37091  -3.65456  -5.32053 
 C                     1.35917  -3.70429  -6.10207 
 C                     2.42631  -3.93902  -5.22347 
 C                     1.59623  -3.7393   -7.48419 
 C                     3.70249  -4.21443  -5.71603 
 H                     2.24634  -3.91966  -4.14551 
 C                     2.8712   -4.01419  -7.97472 
 H                     0.77702  -3.53574  -8.17864 
 C                     3.92748  -4.25469  -7.09198 
 H                     4.52126  -4.39971  -5.01788 
 H                     3.04489  -4.02848  -9.05233 
 H                     4.92583  -4.46796  -7.47847 
 F                    -3.49829  -4.29445  -5.65652 
 C                    -3.00644  -6.17227  -10.11371 
 H                    -4.02373  -6.28583  -9.71061 
 H                    -2.98157  -5.21868  -10.66114 
 H                    -2.80656  -6.99169  -10.81407 
 C                     1.11953  -9.11996  -8.40587 
 C                     2.12711  -7.55333  -6.82029 
 C                     2.48728  -9.26623  -9.0527 
 H                     0.33124  -9.2365   -9.15475 
 H                     0.99146  -9.90977  -7.64594 
 C                     3.44444  -7.79004  -7.5494 
 H                     2.10885  -6.50985  -6.48059 
 H                     2.05511  -8.20959  -5.9373 
 H                     2.58597  -8.5346   -9.8772 
 H                     2.59488  -10.27759  -9.46578 
 H                     3.55846  -7.02444  -8.34074 
 H                     4.27634  -7.68643  -6.84012 
 N                     1.0147   -7.82475  -7.73458 
 O                     3.50827  -9.07759  -8.10646 
 H                    -2.87437  -4.35163  -8.08649 
 H                     0.29639  -6.11317  -6.04012 
 
 ITRead=  0  0  0  0  0  0  0  0  0  0  0  0  0  0  0  0  0  0  0  0
 ITRead=  0  0  0  0  0  0  0  0  0  0  0  0  0  0  0  0  0  0  0  0
 ITRead=  0  0  0  0  0  0  0  0  0  0  0  0  0  0  0  0  0  0  0  0
 ITRead=  0  0  0  0  0  0  0  0  0  0  0  0  0  0  0  0  0  0  0  0
 ITRead=  0  0  0  0  0  0  0  0  0  0  0  0  0  0  0  0  0  0  0  0
 ITRead=  0  0  0  0  0  0  0  0  0  0  0  0  0  0  0  0  0  0  0  0
 ITRead=  0  0  0  0  0  0  0  0  0  0  0  0  0  0  0  0  0  0  0  0
 ITRead=  0  0  0  0  0  0  0  0  0  0  0  0  0  0  0  0  0  0  0  0
 ITRead=  0  0  0  0  0  0  0  0  0  0  0  0  0  0  0  0
 MicOpt= -1 -1 -1 -1 -1 -1 -1 -1 -1 -1 -1 -1 -1 -1 -1 -1 -1 -1 -1 -1
 MicOpt= -1 -1 -1 -1 -1 -1 -1 -1 -1 -1 -1 -1 -1 -1 -1 -1 -1 -1 -1 -1
 MicOpt= -1 -1 -1 -1 -1 -1 -1 -1 -1 -1 -1 -1 -1 -1 -1 -1 -1 -1 -1 -1
 MicOpt= -1 -1 -1 -1 -1 -1 -1 -1 -1 -1 -1 -1 -1 -1 -1 -1 -1 -1 -1 -1
 MicOpt= -1 -1 -1 -1 -1 -1 -1 -1 -1 -1 -1 -1 -1 -1 -1 -1 -1 -1 -1 -1
 MicOpt= -1 -1 -1 -1 -1 -1 -1 -1 -1 -1 -1 -1 -1 -1 -1 -1 -1 -1 -1 -1
 MicOpt= -1 -1 -1 -1 -1 -1 -1 -1 -1 -1 -1 -1 -1 -1 -1 -1 -1 -1 -1 -1
 MicOpt= -1 -1 -1 -1 -1 -1 -1 -1 -1 -1 -1 -1 -1 -1 -1 -1 -1 -1 -1 -1
 MicOpt= -1 -1 -1 -1 -1 -1 -1 -1 -1 -1 -1 -1 -1 -1 -1 -1
 NAtoms=    176 NQM=      176 NQMF=       0 NMMI=      0 NMMIF=      0
                NMic=       0 NMicF=      0.
                    Isotopes and Nuclear Properties:
 (Nuclear quadrupole moments (NQMom) in fm**2, nuclear magnetic moments (NMagM)
  in nuclear magnetons)

  Atom         1           2           3           4           5           6           7           8           9          10
 IAtWgt=          12          12          12          12          12          14           1          12          12          12
 AtmWgt=  12.0000000  12.0000000  12.0000000  12.0000000  12.0000000  14.0030740   1.0078250  12.0000000  12.0000000  12.0000000
 NucSpn=           0           0           0           0           0           2           1           0           0           0
 AtZEff=  -0.0000000  -0.0000000  -0.0000000  -0.0000000  -0.0000000  -0.0000000  -0.0000000  -0.0000000  -0.0000000  -0.0000000
 NQMom=    0.0000000   0.0000000   0.0000000   0.0000000   0.0000000   2.0440000   0.0000000   0.0000000   0.0000000   0.0000000
 NMagM=    0.0000000   0.0000000   0.0000000   0.0000000   0.0000000   0.4037610   2.7928460   0.0000000   0.0000000   0.0000000
 AtZNuc=   6.0000000   6.0000000   6.0000000   6.0000000   6.0000000   7.0000000   1.0000000   6.0000000   6.0000000   6.0000000

  Atom        11          12          13          14          15          16          17          18          19          20
 IAtWgt=          12          12           1           1           1          12          12          12          12          12
 AtmWgt=  12.0000000  12.0000000   1.0078250   1.0078250   1.0078250  12.0000000  12.0000000  12.0000000  12.0000000  12.0000000
 NucSpn=           0           0           1           1           1           0           0           0           0           0
 AtZEff=  -0.0000000  -0.0000000  -0.0000000  -0.0000000  -0.0000000  -0.0000000  -0.0000000  -0.0000000  -0.0000000  -0.0000000
 NQMom=    0.0000000   0.0000000   0.0000000   0.0000000   0.0000000   0.0000000   0.0000000   0.0000000   0.0000000   0.0000000
 NMagM=    0.0000000   0.0000000   2.7928460   2.7928460   2.7928460   0.0000000   0.0000000   0.0000000   0.0000000   0.0000000
 AtZNuc=   6.0000000   6.0000000   1.0000000   1.0000000   1.0000000   6.0000000   6.0000000   6.0000000   6.0000000   6.0000000

  Atom        21          22          23          24          25          26          27          28          29          30
 IAtWgt=           1          12           1          12           1           1           1          19          12           1
 AtmWgt=   1.0078250  12.0000000   1.0078250  12.0000000   1.0078250   1.0078250   1.0078250  18.9984032  12.0000000   1.0078250
 NucSpn=           1           0           1           0           1           1           1           1           0           1
 AtZEff=  -0.0000000  -0.0000000  -0.0000000  -0.0000000  -0.0000000  -0.0000000  -0.0000000  -0.0000000  -0.0000000  -0.0000000
 NQMom=    0.0000000   0.0000000   0.0000000   0.0000000   0.0000000   0.0000000   0.0000000   0.0000000   0.0000000   0.0000000
 NMagM=    2.7928460   0.0000000   2.7928460   0.0000000   2.7928460   2.7928460   2.7928460   2.6288670   0.0000000   2.7928460
 AtZNuc=   1.0000000   6.0000000   1.0000000   6.0000000   1.0000000   1.0000000   1.0000000   9.0000000   6.0000000   1.0000000

  Atom        31          32          33          34          35          36          37          38          39          40
 IAtWgt=           1           1          12          12          12           1           1          12           1           1
 AtmWgt=   1.0078250   1.0078250  12.0000000  12.0000000  12.0000000   1.0078250   1.0078250  12.0000000   1.0078250   1.0078250
 NucSpn=           1           1           0           0           0           1           1           0           1           1
 AtZEff=  -0.0000000  -0.0000000  -0.0000000  -0.0000000  -0.0000000  -0.0000000  -0.0000000  -0.0000000  -0.0000000  -0.0000000
 NQMom=    0.0000000   0.0000000   0.0000000   0.0000000   0.0000000   0.0000000   0.0000000   0.0000000   0.0000000   0.0000000
 NMagM=    2.7928460   2.7928460   0.0000000   0.0000000   0.0000000   2.7928460   2.7928460   0.0000000   2.7928460   2.7928460
 AtZNuc=   1.0000000   1.0000000   6.0000000   6.0000000   6.0000000   1.0000000   1.0000000   6.0000000   1.0000000   1.0000000

  Atom        41          42          43          44          45          46          47          48          49          50
 IAtWgt=           1           1           1           1          14          16         127           1          12          12
 AtmWgt=   1.0078250   1.0078250   1.0078250   1.0078250  14.0030740  15.9949146 126.9004000   1.0078250  12.0000000  12.0000000
 NucSpn=           1           1           1           1           2           0           5           1           0           0
 AtZEff=  -0.0000000  -0.0000000  -0.0000000  -0.0000000  -0.0000000  -0.0000000  -0.0000000  -0.0000000  -0.0000000  -0.0000000
 NQMom=    0.0000000   0.0000000   0.0000000   0.0000000   2.0440000   0.0000000 -71.0000000   0.0000000   0.0000000   0.0000000
 NMagM=    2.7928460   2.7928460   2.7928460   2.7928460   0.4037610   0.0000000   2.8132800   2.7928460   0.0000000   0.0000000
 AtZNuc=   1.0000000   1.0000000   1.0000000   1.0000000   7.0000000   8.0000000  53.0000000   1.0000000   6.0000000   6.0000000

  Atom        51          52          53          54          55          56          57          58          59          60
 IAtWgt=          12          12          12          12           1           1          12          12           1           1
 AtmWgt=  12.0000000  12.0000000  12.0000000  12.0000000   1.0078250   1.0078250  12.0000000  12.0000000   1.0078250   1.0078250
 NucSpn=           0           0           0           0           1           1           0           0           1           1
 AtZEff=  -0.0000000  -0.0000000  -0.0000000  -0.0000000  -0.0000000  -0.0000000  -0.0000000  -0.0000000  -0.0000000  -0.0000000
 NQMom=    0.0000000   0.0000000   0.0000000   0.0000000   0.0000000   0.0000000   0.0000000   0.0000000   0.0000000   0.0000000
 NMagM=    0.0000000   0.0000000   0.0000000   0.0000000   2.7928460   2.7928460   0.0000000   0.0000000   2.7928460   2.7928460
 AtZNuc=   6.0000000   6.0000000   6.0000000   6.0000000   1.0000000   1.0000000   6.0000000   6.0000000   1.0000000   1.0000000

  Atom        61          62          63          64          65          66          67          68          69          70
 IAtWgt=          12          12           1          12          12          12          12          12          12          12
 AtmWgt=  12.0000000  12.0000000   1.0078250  12.0000000  12.0000000  12.0000000  12.0000000  12.0000000  12.0000000  12.0000000
 NucSpn=           0           0           1           0           0           0           0           0           0           0
 AtZEff=  -0.0000000  -0.0000000  -0.0000000  -0.0000000  -0.0000000  -0.0000000  -0.0000000  -0.0000000  -0.0000000  -0.0000000
 NQMom=    0.0000000   0.0000000   0.0000000   0.0000000   0.0000000   0.0000000   0.0000000   0.0000000   0.0000000   0.0000000
 NMagM=    0.0000000   0.0000000   2.7928460   0.0000000   0.0000000   0.0000000   0.0000000   0.0000000   0.0000000   0.0000000
 AtZNuc=   6.0000000   6.0000000   1.0000000   6.0000000   6.0000000   6.0000000   6.0000000   6.0000000   6.0000000   6.0000000

  Atom        71          72          73          74          75          76          77          78          79          80
 IAtWgt=          12          12           1           1          12           1           1           1          32          16
 AtmWgt=  12.0000000  12.0000000   1.0078250   1.0078250  12.0000000   1.0078250   1.0078250   1.0078250  31.9720718  15.9949146
 NucSpn=           0           0           1           1           0           1           1           1           0           0
 AtZEff=  -0.0000000  -0.0000000  -0.0000000  -0.0000000  -0.0000000  -0.0000000  -0.0000000  -0.0000000  -0.0000000  -0.0000000
 NQMom=    0.0000000   0.0000000   0.0000000   0.0000000   0.0000000   0.0000000   0.0000000   0.0000000   0.0000000   0.0000000
 NMagM=    0.0000000   0.0000000   2.7928460   2.7928460   0.0000000   2.7928460   2.7928460   2.7928460   0.0000000   0.0000000
 AtZNuc=   6.0000000   6.0000000   1.0000000   1.0000000   6.0000000   1.0000000   1.0000000   1.0000000  16.0000000   8.0000000

  Atom        81          82          83          84          85          86          87          88          89          90
 IAtWgt=          16          32          16          16          14          12          12          12          12          12
 AtmWgt=  15.9949146  31.9720718  15.9949146  15.9949146  14.0030740  12.0000000  12.0000000  12.0000000  12.0000000  12.0000000
 NucSpn=           0           0           0           0           2           0           0           0           0           0
 AtZEff=  -0.0000000  -0.0000000  -0.0000000  -0.0000000  -0.0000000  -0.0000000  -0.0000000  -0.0000000  -0.0000000  -0.0000000
 NQMom=    0.0000000   0.0000000   0.0000000   0.0000000   2.0440000   0.0000000   0.0000000   0.0000000   0.0000000   0.0000000
 NMagM=    0.0000000   0.0000000   0.0000000   0.0000000   0.4037610   0.0000000   0.0000000   0.0000000   0.0000000   0.0000000
 AtZNuc=   8.0000000  16.0000000   8.0000000   8.0000000   7.0000000   6.0000000   6.0000000   6.0000000   6.0000000   6.0000000

  Atom        91          92          93          94          95          96          97          98          99         100
 IAtWgt=          12          12          12          12           1          12           1           1           1          12
 AtmWgt=  12.0000000  12.0000000  12.0000000  12.0000000   1.0078250  12.0000000   1.0078250   1.0078250   1.0078250  12.0000000
 NucSpn=           0           0           0           0           1           0           1           1           1           0
 AtZEff=  -0.0000000  -0.0000000  -0.0000000  -0.0000000  -0.0000000  -0.0000000  -0.0000000  -0.0000000  -0.0000000  -0.0000000
 NQMom=    0.0000000   0.0000000   0.0000000   0.0000000   0.0000000   0.0000000   0.0000000   0.0000000   0.0000000   0.0000000
 NMagM=    0.0000000   0.0000000   0.0000000   0.0000000   2.7928460   0.0000000   2.7928460   2.7928460   2.7928460   0.0000000
 AtZNuc=   6.0000000   6.0000000   6.0000000   6.0000000   1.0000000   6.0000000   1.0000000   1.0000000   1.0000000   6.0000000

  Atom       101         102         103         104         105         106         107         108         109         110
 IAtWgt=          12          12          12           1          12          12           1           1           1          12
 AtmWgt=  12.0000000  12.0000000  12.0000000   1.0078250  12.0000000  12.0000000   1.0078250   1.0078250   1.0078250  12.0000000
 NucSpn=           0           0           0           1           0           0           1           1           1           0
 AtZEff=  -0.0000000  -0.0000000  -0.0000000  -0.0000000  -0.0000000  -0.0000000  -0.0000000  -0.0000000  -0.0000000  -0.0000000
 NQMom=    0.0000000   0.0000000   0.0000000   0.0000000   0.0000000   0.0000000   0.0000000   0.0000000   0.0000000   0.0000000
 NMagM=    0.0000000   0.0000000   0.0000000   2.7928460   0.0000000   0.0000000   2.7928460   2.7928460   2.7928460   0.0000000
 AtZNuc=   6.0000000   6.0000000   6.0000000   1.0000000   6.0000000   6.0000000   1.0000000   1.0000000   1.0000000   6.0000000

  Atom       111         112         113         114         115         116         117         118         119         120
 IAtWgt=          19          19          19          12          19          19          19          14          12          12
 AtmWgt=  18.9984032  18.9984032  18.9984032  12.0000000  18.9984032  18.9984032  18.9984032  14.0030740  12.0000000  12.0000000
 NucSpn=           1           1           1           0           1           1           1           2           0           0
 AtZEff=  -0.0000000  -0.0000000  -0.0000000  -0.0000000  -0.0000000  -0.0000000  -0.0000000  -0.0000000  -0.0000000  -0.0000000
 NQMom=    0.0000000   0.0000000   0.0000000   0.0000000   0.0000000   0.0000000   0.0000000   2.0440000   0.0000000   0.0000000
 NMagM=    2.6288670   2.6288670   2.6288670   0.0000000   2.6288670   2.6288670   2.6288670   0.4037610   0.0000000   0.0000000
 AtZNuc=   9.0000000   9.0000000   9.0000000   6.0000000   9.0000000   9.0000000   9.0000000   7.0000000   6.0000000   6.0000000

  Atom       121         122         123         124         125         126         127         128         129         130
 IAtWgt=          12          12          16          16           1           1           1           1          12          12
 AtmWgt=  12.0000000  12.0000000  15.9949146  15.9949146   1.0078250   1.0078250   1.0078250   1.0078250  12.0000000  12.0000000
 NucSpn=           0           0           0           0           1           1           1           1           0           0
 AtZEff=  -0.0000000  -0.0000000  -0.0000000  -0.0000000  -0.0000000  -0.0000000  -0.0000000  -0.0000000  -0.0000000  -0.0000000
 NQMom=    0.0000000   0.0000000   0.0000000   0.0000000   0.0000000   0.0000000   0.0000000   0.0000000   0.0000000   0.0000000
 NMagM=    0.0000000   0.0000000   0.0000000   0.0000000   2.7928460   2.7928460   2.7928460   2.7928460   0.0000000   0.0000000
 AtZNuc=   6.0000000   6.0000000   8.0000000   8.0000000   1.0000000   1.0000000   1.0000000   1.0000000   6.0000000   6.0000000

  Atom       131         132         133         134         135         136         137         138         139         140
 IAtWgt=          12          12          12          14           1          12          12          12          12          12
 AtmWgt=  12.0000000  12.0000000  12.0000000  14.0030740   1.0078250  12.0000000  12.0000000  12.0000000  12.0000000  12.0000000
 NucSpn=           0           0           0           2           1           0           0           0           0           0
 AtZEff=  -0.0000000  -0.0000000  -0.0000000  -0.0000000  -0.0000000  -0.0000000  -0.0000000  -0.0000000  -0.0000000  -0.0000000
 NQMom=    0.0000000   0.0000000   0.0000000   2.0440000   0.0000000   0.0000000   0.0000000   0.0000000   0.0000000   0.0000000
 NMagM=    0.0000000   0.0000000   0.0000000   0.4037610   2.7928460   0.0000000   0.0000000   0.0000000   0.0000000   0.0000000
 AtZNuc=   6.0000000   6.0000000   6.0000000   7.0000000   1.0000000   6.0000000   6.0000000   6.0000000   6.0000000   6.0000000

  Atom       141         142         143         144         145         146         147         148         149         150
 IAtWgt=           1           1           1          12          12          12          12          12           1          12
 AtmWgt=   1.0078250   1.0078250   1.0078250  12.0000000  12.0000000  12.0000000  12.0000000  12.0000000   1.0078250  12.0000000
 NucSpn=           1           1           1           0           0           0           0           0           1           0
 AtZEff=  -0.0000000  -0.0000000  -0.0000000  -0.0000000  -0.0000000  -0.0000000  -0.0000000  -0.0000000  -0.0000000  -0.0000000
 NQMom=    0.0000000   0.0000000   0.0000000   0.0000000   0.0000000   0.0000000   0.0000000   0.0000000   0.0000000   0.0000000
 NMagM=    2.7928460   2.7928460   2.7928460   0.0000000   0.0000000   0.0000000   0.0000000   0.0000000   2.7928460   0.0000000
 AtZNuc=   1.0000000   1.0000000   1.0000000   6.0000000   6.0000000   6.0000000   6.0000000   6.0000000   1.0000000   6.0000000

  Atom       151         152         153         154         155         156         157         158         159         160
 IAtWgt=           1          12           1           1           1          19          12           1           1           1
 AtmWgt=   1.0078250  12.0000000   1.0078250   1.0078250   1.0078250  18.9984032  12.0000000   1.0078250   1.0078250   1.0078250
 NucSpn=           1           0           1           1           1           1           0           1           1           1
 AtZEff=  -0.0000000  -0.0000000  -0.0000000  -0.0000000  -0.0000000  -0.0000000  -0.0000000  -0.0000000  -0.0000000  -0.0000000
 NQMom=    0.0000000   0.0000000   0.0000000   0.0000000   0.0000000   0.0000000   0.0000000   0.0000000   0.0000000   0.0000000
 NMagM=    2.7928460   0.0000000   2.7928460   2.7928460   2.7928460   2.6288670   0.0000000   2.7928460   2.7928460   2.7928460
 AtZNuc=   1.0000000   6.0000000   1.0000000   1.0000000   1.0000000   9.0000000   6.0000000   1.0000000   1.0000000   1.0000000

  Atom       161         162         163         164         165         166         167         168         169         170
 IAtWgt=          12          12          12           1           1          12           1           1           1           1
 AtmWgt=  12.0000000  12.0000000  12.0000000   1.0078250   1.0078250  12.0000000   1.0078250   1.0078250   1.0078250   1.0078250
 NucSpn=           0           0           0           1           1           0           1           1           1           1
 AtZEff=  -0.0000000  -0.0000000  -0.0000000  -0.0000000  -0.0000000  -0.0000000  -0.0000000  -0.0000000  -0.0000000  -0.0000000
 NQMom=    0.0000000   0.0000000   0.0000000   0.0000000   0.0000000   0.0000000   0.0000000   0.0000000   0.0000000   0.0000000
 NMagM=    0.0000000   0.0000000   0.0000000   2.7928460   2.7928460   0.0000000   2.7928460   2.7928460   2.7928460   2.7928460
 AtZNuc=   6.0000000   6.0000000   6.0000000   1.0000000   1.0000000   6.0000000   1.0000000   1.0000000   1.0000000   1.0000000

  Atom       171         172         173         174         175         176
 IAtWgt=           1           1          14          16           1           1
 AtmWgt=   1.0078250   1.0078250  14.0030740  15.9949146   1.0078250   1.0078250
 NucSpn=           1           1           2           0           1           1
 AtZEff=  -0.0000000  -0.0000000  -0.0000000  -0.0000000  -0.0000000  -0.0000000
 NQMom=    0.0000000   0.0000000   2.0440000   0.0000000   0.0000000   0.0000000
 NMagM=    2.7928460   2.7928460   0.4037610   0.0000000   2.7928460   2.7928460
 AtZNuc=   1.0000000   1.0000000   7.0000000   8.0000000   1.0000000   1.0000000
 Leave Link  101 at Sat Feb  8 11:08:48 2025, MaxMem=  7247757312 cpu:               1.1 elap:               0.1
 (Enter /ihome/crc/install/gaussian/c01/avx2/tar/g16/l202.exe)
 Symmetry turned off by external request.
 Stoichiometry    C86H65F8IN6O8S2
 Framework group  C1[X(C86H65F8IN6O8S2)]
 Deg. of freedom   522
 Full point group                 C1      NOp   1
                          Input orientation:                          
 ---------------------------------------------------------------------
 Center     Atomic      Atomic             Coordinates (Angstroms)
 Number     Number       Type             X           Y           Z
 ---------------------------------------------------------------------
      1          6           0        1.898308   -2.055621   -0.686178
      2          6           0        0.502841   -2.173785   -0.643485
      3          6           0       -0.107389   -2.467838    0.591277
      4          6           0        0.704104   -2.721460    1.689226
      5          6           0        2.109966   -2.664799    1.537227
      6          7           0        2.662774   -2.280512    0.380048
      7          1           0        0.239255   -2.955572    2.644895
      8          6           0        2.629395   -1.598521   -1.910660
      9          6           0        3.931118   -2.053291   -2.242322
     10          6           0        4.640973   -1.435578   -3.280053
     11          6           0        2.809872    0.058853   -3.721716
     12          6           0        4.097257   -0.377779   -4.005866
     13          1           0        5.637199   -1.805435   -3.528623
     14          1           0        4.672205    0.097594   -4.802177
     15          1           0        2.332739    0.878678   -4.259879
     16          6           0        2.106614   -0.562643   -2.697602
     17          6           0        4.595201   -3.190202   -1.543906
     18          6           0        5.927994   -3.075899   -1.128279
     19          6           0        3.927402   -4.404378   -1.329296
     20          6           0        6.568895   -4.136752   -0.484835
     21          1           0        6.459765   -2.135804   -1.290731
     22          6           0        4.563838   -5.462178   -0.686567
     23          1           0        2.892056   -4.512460   -1.660222
     24          6           0        5.887484   -5.331040   -0.256109
     25          1           0        7.603839   -4.024238   -0.156133
     26          1           0        4.023904   -6.396587   -0.521485
     27          1           0        6.384749   -6.159646    0.251435
     28          9           0        0.869262   -0.121691   -2.473672
     29          6           0       -1.605231   -2.487707    0.733139
     30          1           0       -2.101956   -2.370443   -0.238639
     31          1           0       -1.943443   -3.417953    1.215143
     32          1           0       -1.920519   -1.640170    1.362163
     33          6           0        2.557844   -3.102990    3.933314
     34          6           0        4.408307   -2.796825    2.375879
     35          6           0        3.443470   -4.083002    4.689322
     36          1           0        1.524582   -3.459632    4.003029
     37          1           0        2.611032   -2.107194    4.414206
     38          6           0        5.188695   -3.803128    3.202119
     39          1           0        4.665762   -2.907655    1.316467
     40          1           0        4.679071   -1.770101    2.692890
     41          1           0        3.252610   -5.106353    4.310627
     42          1           0        3.198047   -4.056063    5.759564
     43          1           0        5.024777   -4.817976    2.788805
     44          1           0        6.262813   -3.576404    3.153804
     45          7           0        2.979226   -3.015676    2.545372
     46          8           0        4.806363   -3.769311    4.556425
     47         53           0       -0.132182   -4.918471   -1.525212
     48          1           0       -0.110392   -1.904748   -1.499231
     49          6           0       -4.430087    5.922970   -2.138236
     50          6           0       -4.133676    4.780601   -1.433475
     51          6           0       -2.787422    4.340769   -1.290666
     52          6           0       -1.760087    5.094936   -1.926107
     53          6           0       -2.094927    6.279869   -2.640032
     54          6           0       -3.400905    6.689163   -2.740089
     55          1           0       -5.469132    6.240345   -2.239858
     56          1           0       -4.939470    4.197659   -0.987111
     57          6           0       -2.435995    3.155943   -0.561204
     58          6           0       -0.423156    4.638544   -1.864784
     59          1           0       -1.290984    6.847713   -3.112565
     60          1           0       -3.652536    7.596320   -3.291843
     61          6           0       -0.089968    3.467742   -1.209756
     62          6           0       -1.117816    2.728011   -0.534846
     63          1           0        0.359668    5.211804   -2.364537
     64          6           0       -3.529410    2.381838    0.125038
     65          6           0       -3.866887    1.096495   -0.263129
     66          6           0       -4.173390    2.972100    1.264169
     67          6           0       -4.817309    0.323829    0.481033
     68          6           0       -5.186634    2.237381    1.945578
     69          6           0       -3.823262    4.258412    1.764356
     70          6           0       -5.479988    0.914718    1.540170
     71          6           0       -5.851094    2.820870    3.060980
     72          6           0       -4.474599    4.793435    2.850055
     73          1           0       -3.022865    4.822350    1.285756
     74          1           0       -6.215980    0.335712    2.100690
     75          6           0       -5.508163    4.074612    3.500643
     76          1           0       -6.629600    2.243334    3.563504
     77          1           0       -4.188256    5.779728    3.218615
     78          1           0       -6.018135    4.515617    4.358576
     79         16           0       -0.804543    1.095006    0.155559
     80          8           0       -1.466227    1.059633    1.428631
     81          8           0        0.598944    0.831989    0.183126
     82         16           0       -2.882892    0.381914   -1.581026
     83          8           0       -2.854608    1.357604   -2.631359
     84          8           0       -3.414660   -0.897833   -1.959492
     85          7           0       -1.480750    0.148085   -0.912262
     86          6           0        1.280853    3.047166   -1.244471
     87          6           0        2.444679    2.705192   -1.285206
     88          6           0       -5.046187   -1.068532    0.226577
     89          6           0       -5.177870   -2.263253    0.058409
     90          6           0       -5.141520   -3.649949   -0.301237
     91          6           0       -5.944927   -4.632090    0.307548
     92          6           0       -4.236998   -4.039861   -1.304277
     93          6           0       -5.842176   -5.966245   -0.077630
     94          6           0       -4.139028   -5.374910   -1.683695
     95          1           0       -3.619976   -3.267246   -1.767172
     96          6           0       -4.938977   -6.340095   -1.072138
     97          1           0       -6.468580   -6.715970    0.405756
     98          1           0       -3.427689   -5.658979   -2.463194
     99          1           0       -4.859291   -7.388882   -1.360126
    100          6           0        3.750059    2.123266   -1.175739
    101          6           0        3.900764    1.017892   -0.322172
    102          6           0        4.868804    2.585903   -1.894136
    103          6           0        5.141934    0.404348   -0.180161
    104          1           0        3.019416    0.646121    0.205297
    105          6           0        6.109983    1.974159   -1.740759
    106          6           0        6.249597    0.886960   -0.877962
    107          1           0        5.233071   -0.465814    0.473259
    108          1           0        6.967504    2.346092   -2.301858
    109          1           0        7.225244    0.412716   -0.759913
    110          6           0        4.697323    3.714593   -2.872812
    111          9           0        5.853638    4.065302   -3.442364
    112          9           0        4.194146    4.812879   -2.301618
    113          9           0        3.861358    3.381726   -3.865620
    114          6           0       -6.912675   -4.226947    1.387293
    115          9           0       -7.610502   -5.267611    1.849284
    116          9           0       -7.798897   -3.325634    0.951050
    117          9           0       -6.290474   -3.677038    2.434586
    118          7           0       -0.604321   -6.734247   -2.342399
    119          6           0       -0.199455   -7.098651   -3.598769
    120          6           0       -0.805222   -8.446292   -3.933516
    121          6           0       -1.501587   -8.892098   -2.649013
    122          6           0       -1.370714   -7.715074   -1.696600
    123          8           0       -1.813957   -7.608068   -0.588682
    124          8           0        0.518164   -6.419797   -4.308368
    125          1           0       -1.505383   -8.298338   -4.769327
    126          1           0       -0.012087   -9.124515   -4.275296
    127          1           0       -1.023365   -9.762255   -2.178619
    128          1           0       -2.566158   -9.127919   -2.776502
    129          6           0       -1.205461   -5.093898   -6.981371
    130          6           0       -2.107260   -5.121206   -8.014544
    131          6           0       -2.014935   -6.145455   -8.991483
    132          6           0       -0.996590   -7.074922   -8.916497
    133          6           0       -0.053969   -7.017697   -7.857577
    134          7           0       -0.250962   -6.066339   -6.914724
    135          1           0       -0.894836   -7.824440   -9.697609
    136          6           0       -1.173489   -4.043082   -5.936524
    137          6           0        0.016038   -3.388905   -5.537877
    138          6           0       -0.059466   -2.376401   -4.576619
    139          6           0       -2.445803   -2.650194   -4.368226
    140          6           0       -1.270297   -2.000165   -4.002396
    141          1           0        0.858889   -1.859841   -4.303807
    142          1           0       -1.299339   -1.193534   -3.267800
    143          1           0       -3.406470   -2.376612   -3.931125
    144          6           0       -2.370910   -3.654560   -5.320533
    145          6           0        1.359166   -3.704290   -6.102067
    146          6           0        2.426311   -3.939015   -5.223466
    147          6           0        1.596225   -3.739301   -7.484188
    148          6           0        3.702491   -4.214430   -5.716032
    149          1           0        2.246344   -3.919655   -4.145514
    150          6           0        2.871199   -4.014195   -7.974724
    151          1           0        0.777021   -3.535743   -8.178636
    152          6           0        3.927475   -4.254690   -7.091978
    153          1           0        4.521257   -4.399706   -5.017875
    154          1           0        3.044888   -4.028483   -9.052327
    155          1           0        4.925827   -4.467958   -7.478467
    156          9           0       -3.498291   -4.294447   -5.656518
    157          6           0       -3.006438   -6.172266  -10.113707
    158          1           0       -4.023727   -6.285827   -9.710605
    159          1           0       -2.981566   -5.218678  -10.661138
    160          1           0       -2.806559   -6.991688  -10.814066
    161          6           0        1.119533   -9.119964   -8.405865
    162          6           0        2.127115   -7.553328   -6.820291
    163          6           0        2.487282   -9.266231   -9.052699
    164          1           0        0.331235   -9.236500   -9.154751
    165          1           0        0.991460   -9.909771   -7.645942
    166          6           0        3.444438   -7.790041   -7.549398
    167          1           0        2.108849   -6.509848   -6.480592
    168          1           0        2.055111   -8.209594   -5.937296
    169          1           0        2.585965   -8.534604   -9.877198
    170          1           0        2.594875  -10.277591   -9.465782
    171          1           0        3.558455   -7.024436   -8.340740
    172          1           0        4.276340   -7.686427   -6.840124
    173          7           0        1.014701   -7.824745   -7.734576
    174          8           0        3.508273   -9.077592   -8.106457
    175          1           0       -2.874374   -4.351628   -8.086490
    176          1           0        0.296392   -6.113167   -6.040121
 ---------------------------------------------------------------------
 Rotational constants (GHZ):           0.0154086           0.0116452           0.0096681
 Leave Link  202 at Sat Feb  8 11:08:48 2025, MaxMem=  7247757312 cpu:               0.7 elap:               0.0
 (Enter /ihome/crc/install/gaussian/c01/avx2/tar/g16/l301.exe)
 Standard basis: def2TZVPP (5D, 7F)
 Ernie: Thresh=  0.10000D-02 Tol=  0.10000D-05 Strict=F.
  4392 basis functions,  6860 primitive gaussians,  5018 cartesian basis functions
   408 alpha electrons      408 beta electrons
       nuclear repulsion energy     26751.6012264128 Hartrees.
 IExCor=  402 DFT=T Ex+Corr=B3LYP ExCW=0 ScaHFX=  0.200000
 ScaDFX=  0.800000  0.720000  1.000000  0.810000 ScalE2=  1.000000  1.000000
 IRadAn=      5 IRanWt=     -1 IRanGd=            0 ICorTp=0 IEmpDi=141
 NAtoms=  176 NActive=  176 NUniq=  176 SFac= 1.00D+00 NAtFMM=   60 NAOKFM=T Big=T
 Integral buffers will be    131072 words long.
 Raffenetti 2 integral format.
 Two-electron integral symmetry is turned off.
 R6Disp:  Grimme-D3(BJ) Dispersion energy=       -0.5678368741 Hartrees.
 Nuclear repulsion after empirical dispersion term =    26751.0333895387 Hartrees.
 ------------------------------------------------------------------------------
 Polarizable Continuum Model (PCM)
 =================================
 Model                : PCM.
 Atomic radii         : SMD-Coulomb.
 Polarization charges : Total charges.
 Charge compensation  : None.
 Solution method      : On-the-fly selection.
 Cavity type          : VdW (van der Waals Surface) (Alpha=1.000).
 Cavity algorithm     : GePol (No added spheres)
                        Default sphere list used, NSphG=  176.
                        Lebedev-Laikov grids with approx.  5.0 points / Ang**2.
                        Smoothing algorithm: York/Karplus (Gamma=1.0000).
                        Polarization charges: spherical gaussians, with
                                              point-specific exponents (IZeta= 3).
                        Self-potential: point-specific (ISelfS= 7).
                        Self-field    : sphere-specific E.n sum rule (ISelfD= 2).
 Solvent              : PropylEthanoate, Eps=   5.520500 Eps(inf)=   1.916010
 ------------------------------------------------------------------------------
 GePol: Number of generator spheres                  =     176
 GePol: Total number of spheres                      =     176
 GePol: Number of exposed spheres                    =     175 ( 99.43%)
 GePol: Number of points                             =   12443
 GePol: Average weight of points                     =       0.11
 GePol: Minimum weight of points                     =   0.57D-11
 GePol: Maximum weight of points                     =    0.21501
 GePol: Number of points with low weight             =     814
 GePol: Fraction of low-weight points (<1% of avg)   =       6.54%
 GePol: Cavity surface area                          =   1372.833 Ang**2
 GePol: Cavity volume                                =   1559.593 Ang**3
 ------------------------------------------------------------------------------
 Atomic radii for non-electrostatic terms: SMD-CDS.
 ------------------------------------------------------------------------------
 PCM non-electrostatic energy =        -0.0342627249 Hartrees.
 Nuclear repulsion after PCM non-electrostatic terms =    26750.9991268138 Hartrees.
 Leave Link  301 at Sat Feb  8 11:08:48 2025, MaxMem=  7247757312 cpu:               2.5 elap:               0.1
 (Enter /ihome/crc/install/gaussian/c01/avx2/tar/g16/l302.exe)
 NPDir=0 NMtPBC=     1 NCelOv=     1 NCel=       1 NClECP=     1 NCelD=      1
         NCelK=      1 NCelE2=     1 NClLst=     1 CellRange=     0.0.
 One-electron integrals computed using PRISM.
   1 Symmetry operations used in ECPInt.
 ECPInt:  NShTT= 1316253 NPrTT= 3826671 LenC2=  708643 LenP2D= 1286498.
 LDataN:  DoStor=T MaxTD1= 7 Len=  274
 Number of processors reduced to  10 by ecpmxn.
 NBasis=  4392 RedAO= T EigKep=  2.03D-06  NBF=  4392
 NBsUse=  4392 1.00D-06 EigRej= -1.00D+00 NBFU=  4392
 Precomputing XC quadrature grid using
 IXCGrd= 4 IRadAn=           5 IRanWt=          -1 IRanGd=           0 AccXCQ= 0.00D+00.
 Defaulting to unpruned grid for atomic number  53.
 Generated NRdTot=       0 NPtTot=           0 NUsed=           0 NTot=          32
 NSgBfM=  3595  3481  3524  3571  3595 MxSgAt=   176 MxSgA2=   176.
 Leave Link  302 at Sat Feb  8 11:09:23 2025, MaxMem=  7247757312 cpu:            1044.8 elap:              35.2
 (Enter /ihome/crc/install/gaussian/c01/avx2/tar/g16/l303.exe)
 DipDrv:  MaxL=1.
 Leave Link  303 at Sat Feb  8 11:09:24 2025, MaxMem=  7247757312 cpu:              28.9 elap:               1.3
 (Enter /ihome/crc/install/gaussian/c01/avx2/tar/g16/l401.exe)
 ExpMin= 7.49D-02 ExpMax= 6.07D+04 ExpMxC= 2.07D+03 IAcc=3 IRadAn=         5 AccDes= 0.00D+00
 Harris functional with IExCor=  402 and IRadAn=       5 diagonalized for initial guess.
 HarFok:  IExCor=  402 AccDes= 0.00D+00 IRadAn=         5 IDoV= 1 UseB2=F ITyADJ=14
 ICtDFT=  3500011 ScaDFX=  1.000000  1.000000  1.000000  1.000000
 Defaulting to unpruned grid for atomic number  53.
 FoFCou: FMM=F IPFlag=           0 FMFlag=      100000 FMFlg1=        2001
         NFxFlg=           0 DoJE=T BraDBF=F KetDBF=T FulRan=T
         wScrn=  0.000000 ICntrl=       500 IOpCl=  0 I1Cent=   200000004 NGrid=           0
         NMat0=    1 NMatS0=      1 NMatT0=    0 NMatD0=    1 NMtDS0=    0 NMtDT0=    0
 Symmetry not used in FoFCou.
 Harris En= -6142.05531056621    
 JPrj=0 DoOrth=F DoCkMO=F.
 Leave Link  401 at Sat Feb  8 11:09:53 2025, MaxMem=  7247757312 cpu:             899.4 elap:              28.7
 (Enter /ihome/crc/install/gaussian/c01/avx2/tar/g16/l502.exe)
 Two-electron integral symmetry not used.
 Closed shell SCF:
 Using DIIS extrapolation, IDIIS=  1040.
 NGot=  7247757312 LenX=  7197201328 LenY=  7172015986
 Requested convergence on RMS density matrix=1.00D-08 within 128 cycles.
 Requested convergence on MAX density matrix=1.00D-06.
 Requested convergence on             energy=1.00D-06.
 No special actions if energy rises.
 Fock matrices will be formed incrementally for  20 cycles.

 Cycle   1  Pass 1  IDiag  1:
 FoFJK:  IHMeth= 1 ICntrl=       0 DoSepK=F KAlg= 0 I1Cent=           0 FoldK=F
 IRaf= 480000000 NMat=       1 IRICut=       1 DoRegI=T DoRafI=F ISym2E= 0 IDoP0=0 IntGTp=1.
 FoFCou: FMM=T IPFlag=           0 FMFlag=      100000 FMFlg1=        2001
         NFxFlg=           0 DoJE=F BraDBF=F KetDBF=F FulRan=T
         wScrn=  0.000000 ICntrl=         0 IOpCl=  0 I1Cent=           0 NGrid=           0
         NMat0=    1 NMatS0=      1 NMatT0=    0 NMatD0=    1 NMtDS0=    0 NMtDT0=    0
 Symmetry not used in FoFCou.
 FMM levels:  10  Number of levels for PrismC:   9
 Defaulting to unpruned grid for atomic number  53.
 Defaulting to unpruned grid for atomic number  53.
 Defaulting to unpruned grid for atomic number  53.
 Defaulting to unpruned grid for atomic number  53.
 Defaulting to unpruned grid for atomic number  53.
 Defaulting to unpruned grid for atomic number  53.
 Defaulting to unpruned grid for atomic number  53.
 Defaulting to unpruned grid for atomic number  53.
 Defaulting to unpruned grid for atomic number  53.
 Defaulting to unpruned grid for atomic number  53.
 Defaulting to unpruned grid for atomic number  53.
 Defaulting to unpruned grid for atomic number  53.
 Defaulting to unpruned grid for atomic number  53.
 Defaulting to unpruned grid for atomic number  53.
 Defaulting to unpruned grid for atomic number  53.
 Defaulting to unpruned grid for atomic number  53.
 Defaulting to unpruned grid for atomic number  53.
 Defaulting to unpruned grid for atomic number  53.
 Defaulting to unpruned grid for atomic number  53.
 Defaulting to unpruned grid for atomic number  53.
 Defaulting to unpruned grid for atomic number  53.
 Defaulting to unpruned grid for atomic number  53.
 Defaulting to unpruned grid for atomic number  53.
 Defaulting to unpruned grid for atomic number  53.
 Defaulting to unpruned grid for atomic number  53.
 Defaulting to unpruned grid for atomic number  53.
 Defaulting to unpruned grid for atomic number  53.
 Defaulting to unpruned grid for atomic number  53.
 Defaulting to unpruned grid for atomic number  53.
 Defaulting to unpruned grid for atomic number  53.
 Defaulting to unpruned grid for atomic number  53.
 Defaulting to unpruned grid for atomic number  53.
 Inv3:  Mode=1 IEnd=   464484747.
 Iteration    1 A*A^-1 deviation from unit magnitude is 3.77D-15 for  10135.
 Iteration    1 A*A^-1 deviation from orthogonality  is 3.77D-15 for   4562   4369.
 Iteration    1 A^-1*A deviation from unit magnitude is 4.22D-15 for   2040.
 Iteration    1 A^-1*A deviation from orthogonality  is 3.58D-15 for   5804   4395.
 E= -6139.32295793081    
 DIIS: error= 9.49D-03 at cycle   1 NSaved=   1.
 NSaved= 1 IEnMin= 1 EnMin= -6139.32295793081     IErMin= 1 ErrMin= 9.49D-03
 ErrMax= 9.49D-03  0.00D+00 EMaxC= 1.00D-01 BMatC= 3.31D+00 BMatP= 3.31D+00
 IDIUse=3 WtCom= 9.05D-01 WtEn= 9.49D-02
 Coeff-Com:  0.100D+01
 Coeff-En:   0.100D+01
 Coeff:      0.100D+01
 Gap=     0.329 Goal=   None    Shift=    0.000
 GapD=    0.329 DampG=1.000 DampE=1.000 DampFc=1.0000 IDamp=-1.
 RMSDP=2.55D-03 MaxDP=1.49D+00              OVMax= 3.23D-01

 Cycle   2  Pass 1  IDiag  1:
 RMSU=  2.52D-03    CP:  1.13D+00
 E= -6136.83496658404     Delta-E=        2.487991346763 Rises=F Damp=F
 DIIS: error= 1.39D-02 at cycle   2 NSaved=   2.
 NSaved= 2 IEnMin= 1 EnMin= -6139.32295793081     IErMin= 1 ErrMin= 9.49D-03
 ErrMax= 1.39D-02  0.00D+00 EMaxC= 1.00D-01 BMatC= 6.47D+00 BMatP= 3.31D+00
 IDIUse=2 WtCom= 0.00D+00 WtEn= 1.00D+00
 Coeff-En:   0.650D+00 0.350D+00
 Coeff:      0.650D+00 0.350D+00
 Gap=     0.123 Goal=   None    Shift=    0.000
 RMSDP=1.85D-03 MaxDP=1.16D+00 DE= 2.49D+00 OVMax= 2.85D-01

 Cycle   3  Pass 1  IDiag  1:
 RMSU=  6.40D-04    CP:  1.03D+00  3.23D-01
 E= -6141.74750119085     Delta-E=       -4.912534606803 Rises=F Damp=F
 DIIS: error= 4.63D-03 at cycle   3 NSaved=   3.
 NSaved= 3 IEnMin= 3 EnMin= -6141.74750119085     IErMin= 3 ErrMin= 4.63D-03
 ErrMax= 4.63D-03  0.00D+00 EMaxC= 1.00D-01 BMatC= 2.90D-01 BMatP= 3.31D+00
 IDIUse=3 WtCom= 9.54D-01 WtEn= 4.63D-02
 Coeff-Com:  0.273D+00 0.182D+00 0.545D+00
 Coeff-En:   0.000D+00 0.000D+00 0.100D+01
 Coeff:      0.260D+00 0.173D+00 0.566D+00
 Gap=     0.147 Goal=   None    Shift=    0.000
 RMSDP=5.44D-04 MaxDP=1.80D-01 DE=-4.91D+00 OVMax= 9.60D-02

 Cycle   4  Pass 1  IDiag  1:
 RMSU=  3.35D-04    CP:  1.01D+00  2.61D-01  3.84D-01
 E= -6141.93445464278     Delta-E=       -0.186953451932 Rises=F Damp=F
 DIIS: error= 3.29D-03 at cycle   4 NSaved=   4.
 NSaved= 4 IEnMin= 4 EnMin= -6141.93445464278     IErMin= 4 ErrMin= 3.29D-03
 ErrMax= 3.29D-03  0.00D+00 EMaxC= 1.00D-01 BMatC= 1.02D-01 BMatP= 2.90D-01
 IDIUse=3 WtCom= 9.67D-01 WtEn= 3.29D-02
 Coeff-Com:  0.706D-01 0.386D-01 0.369D+00 0.522D+00
 Coeff-En:   0.000D+00 0.000D+00 0.266D+00 0.734D+00
 Coeff:      0.683D-01 0.373D-01 0.366D+00 0.529D+00
 Gap=     0.118 Goal=   None    Shift=    0.000
 RMSDP=1.71D-04 MaxDP=9.49D-02 DE=-1.87D-01 OVMax= 5.57D-02

 Cycle   5  Pass 1  IDiag  1:
 RMSU=  9.52D-05    CP:  1.01D+00  2.71D-01  5.39D-01  7.06D-01
 E= -6142.01350177734     Delta-E=       -0.079047134557 Rises=F Damp=F
 DIIS: error= 9.87D-04 at cycle   5 NSaved=   5.
 NSaved= 5 IEnMin= 5 EnMin= -6142.01350177734     IErMin= 5 ErrMin= 9.87D-04
 ErrMax= 9.87D-04  0.00D+00 EMaxC= 1.00D-01 BMatC= 1.04D-02 BMatP= 1.02D-01
 IDIUse=3 WtCom= 9.90D-01 WtEn= 9.87D-03
 Coeff-Com:  0.122D-01 0.150D-02 0.164D+00 0.320D+00 0.502D+00
 Coeff-En:   0.000D+00 0.000D+00 0.000D+00 0.388D-01 0.961D+00
 Coeff:      0.121D-01 0.149D-02 0.162D+00 0.318D+00 0.507D+00
 Gap=     0.120 Goal=   None    Shift=    0.000
 RMSDP=4.77D-05 MaxDP=1.94D-02 DE=-7.90D-02 OVMax= 1.69D-02

 Cycle   6  Pass 1  IDiag  1:
 RMSU=  3.19D-05    CP:  1.01D+00  2.69D-01  5.58D-01  6.98D-01  6.53D-01
 E= -6142.02152455429     Delta-E=       -0.008022776958 Rises=F Damp=F
 DIIS: error= 4.12D-04 at cycle   6 NSaved=   6.
 NSaved= 6 IEnMin= 6 EnMin= -6142.02152455429     IErMin= 6 ErrMin= 4.12D-04
 ErrMax= 4.12D-04  0.00D+00 EMaxC= 1.00D-01 BMatC= 1.30D-03 BMatP= 1.04D-02
 IDIUse=3 WtCom= 9.96D-01 WtEn= 4.12D-03
 Coeff-Com:  0.135D-02-0.279D-02 0.655D-01 0.141D+00 0.317D+00 0.478D+00
 Coeff-En:   0.000D+00 0.000D+00 0.000D+00 0.000D+00 0.893D-01 0.911D+00
 Coeff:      0.135D-02-0.278D-02 0.652D-01 0.141D+00 0.316D+00 0.479D+00
 Gap=     0.121 Goal=   None    Shift=    0.000
 RMSDP=1.55D-05 MaxDP=3.72D-03 DE=-8.02D-03 OVMax= 5.56D-03

 Cycle   7  Pass 1  IDiag  1:
 RMSU=  1.21D-05    CP:  1.01D+00  2.71D-01  5.56D-01  7.07D-01  6.60D-01
                    CP:  7.36D-01
 E= -6142.02257653152     Delta-E=       -0.001051977226 Rises=F Damp=F
 DIIS: error= 1.33D-04 at cycle   7 NSaved=   7.
 NSaved= 7 IEnMin= 7 EnMin= -6142.02257653152     IErMin= 7 ErrMin= 1.33D-04
 ErrMax= 1.33D-04  0.00D+00 EMaxC= 1.00D-01 BMatC= 1.39D-04 BMatP= 1.30D-03
 IDIUse=3 WtCom= 9.99D-01 WtEn= 1.33D-03
 Coeff-Com: -0.411D-03-0.204D-02 0.225D-01 0.504D-01 0.140D+00 0.299D+00
 Coeff-Com:  0.491D+00
 Coeff-En:   0.000D+00 0.000D+00 0.000D+00 0.000D+00 0.000D+00 0.558D-01
 Coeff-En:   0.944D+00
 Coeff:     -0.411D-03-0.204D-02 0.225D-01 0.503D-01 0.139D+00 0.299D+00
 Coeff:      0.492D+00
 Gap=     0.120 Goal=   None    Shift=    0.000
 RMSDP=5.84D-06 MaxDP=1.90D-03 DE=-1.05D-03 OVMax= 2.05D-03

 Cycle   8  Pass 1  IDiag  1:
 RMSU=  3.86D-06    CP:  1.01D+00  2.71D-01  5.58D-01  7.03D-01  6.74D-01
                    CP:  7.24D-01  6.95D-01
 E= -6142.02269306976     Delta-E=       -0.000116538238 Rises=F Damp=F
 DIIS: error= 3.43D-05 at cycle   8 NSaved=   8.
 NSaved= 8 IEnMin= 8 EnMin= -6142.02269306976     IErMin= 8 ErrMin= 3.43D-05
 ErrMax= 3.43D-05  0.00D+00 EMaxC= 1.00D-01 BMatC= 1.02D-05 BMatP= 1.39D-04
 IDIUse=1 WtCom= 1.00D+00 WtEn= 0.00D+00
 Coeff-Com: -0.309D-03-0.886D-03 0.614D-02 0.139D-01 0.468D-01 0.119D+00
 Coeff-Com:  0.273D+00 0.542D+00
 Coeff:     -0.309D-03-0.886D-03 0.614D-02 0.139D-01 0.468D-01 0.119D+00
 Coeff:      0.273D+00 0.542D+00
 Gap=     0.120 Goal=   None    Shift=    0.000
 RMSDP=2.29D-06 MaxDP=7.19D-04 DE=-1.17D-04 OVMax= 6.30D-04

 Cycle   9  Pass 1  IDiag  1:
 RMSU=  1.20D-06    CP:  1.01D+00  2.71D-01  5.57D-01  7.06D-01  6.71D-01
                    CP:  7.25D-01  7.21D-01  7.18D-01
 E= -6142.02270131007     Delta-E=       -0.000008240313 Rises=F Damp=F
 DIIS: error= 1.02D-05 at cycle   9 NSaved=   9.
 NSaved= 9 IEnMin= 9 EnMin= -6142.02270131007     IErMin= 9 ErrMin= 1.02D-05
 ErrMax= 1.02D-05  0.00D+00 EMaxC= 1.00D-01 BMatC= 1.41D-06 BMatP= 1.02D-05
 IDIUse=1 WtCom= 1.00D+00 WtEn= 0.00D+00
 Coeff-Com: -0.119D-03-0.242D-03 0.645D-03 0.153D-02 0.926D-02 0.314D-01
 Coeff-Com:  0.930D-01 0.314D+00 0.551D+00
 Coeff:     -0.119D-03-0.242D-03 0.645D-03 0.153D-02 0.926D-02 0.314D-01
 Coeff:      0.930D-01 0.314D+00 0.551D+00
 Gap=     0.120 Goal=   None    Shift=    0.000
 RMSDP=6.42D-07 MaxDP=2.29D-04 DE=-8.24D-06 OVMax= 2.88D-04

 Cycle  10  Pass 1  IDiag  1:
 RMSU=  4.94D-07    CP:  1.01D+00  2.71D-01  5.57D-01  7.05D-01  6.73D-01
                    CP:  7.28D-01  7.24D-01  7.31D-01  7.77D-01
 E= -6142.02270246338     Delta-E=       -0.000001153305 Rises=F Damp=F
 DIIS: error= 3.80D-06 at cycle  10 NSaved=  10.
 NSaved=10 IEnMin=10 EnMin= -6142.02270246338     IErMin=10 ErrMin= 3.80D-06
 ErrMax= 3.80D-06  0.00D+00 EMaxC= 1.00D-01 BMatC= 2.32D-07 BMatP= 1.41D-06
 IDIUse=1 WtCom= 1.00D+00 WtEn= 0.00D+00
 Coeff-Com: -0.503D-04-0.560D-04-0.255D-03-0.506D-03 0.931D-03 0.748D-02
 Coeff-Com:  0.283D-01 0.136D+00 0.345D+00 0.483D+00
 Coeff:     -0.503D-04-0.560D-04-0.255D-03-0.506D-03 0.931D-03 0.748D-02
 Coeff:      0.283D-01 0.136D+00 0.345D+00 0.483D+00
 Gap=     0.120 Goal=   None    Shift=    0.000
 RMSDP=2.77D-07 MaxDP=1.58D-04 DE=-1.15D-06 OVMax= 1.37D-04

 Cycle  11  Pass 1  IDiag  1:
 RMSU=  1.72D-07    CP:  1.01D+00  2.71D-01  5.57D-01  7.05D-01  6.72D-01
                    CP:  7.29D-01  7.24D-01  7.53D-01  8.21D-01  7.17D-01
 E= -6142.02270266647     Delta-E=       -0.000000203094 Rises=F Damp=F
 DIIS: error= 1.46D-06 at cycle  11 NSaved=  11.
 NSaved=11 IEnMin=11 EnMin= -6142.02270266647     IErMin=11 ErrMin= 1.46D-06
 ErrMax= 1.46D-06  0.00D+00 EMaxC= 1.00D-01 BMatC= 2.61D-08 BMatP= 2.32D-07
 IDIUse=1 WtCom= 1.00D+00 WtEn= 0.00D+00
 Coeff-Com: -0.183D-04-0.261D-05-0.234D-03-0.467D-03-0.498D-03 0.104D-02
 Coeff-Com:  0.615D-02 0.440D-01 0.143D+00 0.294D+00 0.513D+00
 Coeff:     -0.183D-04-0.261D-05-0.234D-03-0.467D-03-0.498D-03 0.104D-02
 Coeff:      0.615D-02 0.440D-01 0.143D+00 0.294D+00 0.513D+00
 Gap=     0.120 Goal=   None    Shift=    0.000
 RMSDP=1.03D-07 MaxDP=3.89D-05 DE=-2.03D-07 OVMax= 4.12D-05

 Cycle  12  Pass 1  IDiag  1:
 RMSU=  7.55D-08    CP:  1.01D+00  2.71D-01  5.57D-01  7.05D-01  6.72D-01
                    CP:  7.29D-01  7.27D-01  7.54D-01  8.26D-01  7.36D-01
                    CP:  6.85D-01
 E= -6142.02270269110     Delta-E=       -0.000000024629 Rises=F Damp=F
 DIIS: error= 7.34D-07 at cycle  12 NSaved=  12.
 NSaved=12 IEnMin=12 EnMin= -6142.02270269110     IErMin=12 ErrMin= 7.34D-07
 ErrMax= 7.34D-07  0.00D+00 EMaxC= 1.00D-01 BMatC= 3.94D-09 BMatP= 2.61D-08
 IDIUse=1 WtCom= 1.00D+00 WtEn= 0.00D+00
 Coeff-Com: -0.464D-05 0.843D-05-0.122D-03-0.231D-03-0.489D-03-0.443D-03
 Coeff-Com: -0.294D-03 0.758D-02 0.387D-01 0.108D+00 0.317D+00 0.530D+00
 Coeff:     -0.464D-05 0.843D-05-0.122D-03-0.231D-03-0.489D-03-0.443D-03
 Coeff:     -0.294D-03 0.758D-02 0.387D-01 0.108D+00 0.317D+00 0.530D+00
 Gap=     0.120 Goal=   None    Shift=    0.000
 RMSDP=4.62D-08 MaxDP=2.13D-05 DE=-2.46D-08 OVMax= 1.59D-05

 Cycle  13  Pass 1  IDiag  1:
 RMSU=  2.50D-08    CP:  1.01D+00  2.71D-01  5.57D-01  7.05D-01  6.72D-01
                    CP:  7.29D-01  7.26D-01  7.56D-01  8.32D-01  7.58D-01
                    CP:  7.63D-01  7.53D-01
 E= -6142.02270269421     Delta-E=       -0.000000003114 Rises=F Damp=F
 DIIS: error= 3.36D-07 at cycle  13 NSaved=  13.
 NSaved=13 IEnMin=13 EnMin= -6142.02270269421     IErMin=13 ErrMin= 3.36D-07
 ErrMax= 3.36D-07  0.00D+00 EMaxC= 1.00D-01 BMatC= 4.84D-10 BMatP= 3.94D-09
 IDIUse=1 WtCom= 1.00D+00 WtEn= 0.00D+00
 Coeff-Com: -0.408D-06 0.560D-05-0.384D-04-0.639D-04-0.225D-03-0.441D-03
 Coeff-Com: -0.120D-02-0.264D-02-0.451D-04 0.152D-01 0.107D+00 0.309D+00
 Coeff-Com:  0.574D+00
 Coeff:     -0.408D-06 0.560D-05-0.384D-04-0.639D-04-0.225D-03-0.441D-03
 Coeff:     -0.120D-02-0.264D-02-0.451D-04 0.152D-01 0.107D+00 0.309D+00
 Coeff:      0.574D+00
 Gap=     0.120 Goal=   None    Shift=    0.000
 RMSDP=1.28D-08 MaxDP=2.69D-06 DE=-3.11D-09 OVMax= 5.87D-06

 Cycle  14  Pass 1  IDiag  1:
 RMSU=  8.44D-09    CP:  1.01D+00  2.71D-01  5.57D-01  7.05D-01  6.72D-01
                    CP:  7.29D-01  7.26D-01  7.55D-01  8.34D-01  7.66D-01
                    CP:  7.79D-01  8.06D-01  9.11D-01
 E= -6142.02270269581     Delta-E=       -0.000000001597 Rises=F Damp=F
 DIIS: error= 8.35D-08 at cycle  14 NSaved=  14.
 NSaved=14 IEnMin=14 EnMin= -6142.02270269581     IErMin=14 ErrMin= 8.35D-08
 ErrMax= 8.35D-08  0.00D+00 EMaxC= 1.00D-01 BMatC= 9.52D-11 BMatP= 4.84D-10
 IDIUse=1 WtCom= 1.00D+00 WtEn= 0.00D+00
 Coeff-Com:  0.426D-06 0.180D-05-0.277D-05 0.129D-05-0.553D-04-0.186D-03
 Coeff-Com: -0.660D-03-0.291D-02-0.685D-02-0.101D-01 0.102D-01 0.977D-01
 Coeff-Com:  0.364D+00 0.549D+00
 Coeff:      0.426D-06 0.180D-05-0.277D-05 0.129D-05-0.553D-04-0.186D-03
 Coeff:     -0.660D-03-0.291D-02-0.685D-02-0.101D-01 0.102D-01 0.977D-01
 Coeff:      0.364D+00 0.549D+00
 Gap=     0.120 Goal=   None    Shift=    0.000
 RMSDP=7.57D-09 MaxDP=2.98D-06 DE=-1.60D-09 OVMax= 3.22D-06

 Cycle  15  Pass 1  IDiag  1:
 RMSU=  3.78D-09    CP:  1.01D+00  2.71D-01  5.57D-01  7.05D-01  6.72D-01
                    CP:  7.29D-01  7.26D-01  7.56D-01  8.33D-01  7.67D-01
                    CP:  7.89D-01  8.31D-01  9.57D-01  8.17D-01
 E= -6142.02270269490     Delta-E=        0.000000000913 Rises=F Damp=F
 DIIS: error= 2.40D-08 at cycle  15 NSaved=  15.
 NSaved=15 IEnMin=14 EnMin= -6142.02270269581     IErMin=15 ErrMin= 2.40D-08
 ErrMax= 2.40D-08  0.00D+00 EMaxC= 1.00D-01 BMatC= 1.31D-11 BMatP= 9.52D-11
 IDIUse=1 WtCom= 1.00D+00 WtEn= 0.00D+00
 Coeff-Com:  0.312D-06 0.410D-06 0.177D-05 0.589D-05-0.107D-04-0.571D-04
 Coeff-Com: -0.228D-03-0.127D-02-0.367D-02-0.714D-02-0.502D-02 0.238D-01
 Coeff-Com:  0.155D+00 0.337D+00 0.502D+00
 Coeff:      0.312D-06 0.410D-06 0.177D-05 0.589D-05-0.107D-04-0.571D-04
 Coeff:     -0.228D-03-0.127D-02-0.367D-02-0.714D-02-0.502D-02 0.238D-01
 Coeff:      0.155D+00 0.337D+00 0.502D+00
 Gap=     0.120 Goal=   None    Shift=    0.000
 RMSDP=2.44D-09 MaxDP=1.02D-06 DE= 9.13D-10 OVMax= 8.83D-07

 Cycle  16  Pass 1  IDiag  1:
 RMSU=  1.23D-09    CP:  1.01D+00  2.71D-01  5.57D-01  7.05D-01  6.72D-01
                    CP:  7.29D-01  7.26D-01  7.56D-01  8.34D-01  7.67D-01
                    CP:  7.89D-01  8.34D-01  9.81D-01  8.45D-01  7.74D-01
 E= -6142.02270269470     Delta-E=        0.000000000196 Rises=F Damp=F
 DIIS: error= 9.10D-09 at cycle  16 NSaved=  16.
 NSaved=16 IEnMin=14 EnMin= -6142.02270269581     IErMin=16 ErrMin= 9.10D-09
 ErrMax= 9.10D-09  0.00D+00 EMaxC= 1.00D-01 BMatC= 1.73D-12 BMatP= 1.31D-11
 IDIUse=1 WtCom= 1.00D+00 WtEn= 0.00D+00
 Coeff-Com:  0.146D-06-0.267D-07 0.164D-05 0.375D-05 0.109D-05-0.944D-05
 Coeff-Com: -0.532D-04-0.396D-03-0.131D-02-0.286D-02-0.408D-02 0.112D-02
 Coeff-Com:  0.448D-01 0.130D+00 0.305D+00 0.528D+00
 Coeff:      0.146D-06-0.267D-07 0.164D-05 0.375D-05 0.109D-05-0.944D-05
 Coeff:     -0.532D-04-0.396D-03-0.131D-02-0.286D-02-0.408D-02 0.112D-02
 Coeff:      0.448D-01 0.130D+00 0.305D+00 0.528D+00
 Gap=     0.120 Goal=   None    Shift=    0.000
 RMSDP=7.24D-10 MaxDP=3.37D-07 DE= 1.96D-10 OVMax= 3.35D-07

 Error on total polarization charges =  0.09062
 SCF Done:  E(RB3LYP) =  -6142.02270269     A.U. after   16 cycles
            NFock= 16  Conv=0.72D-09     -V/T= 2.0356
 KE= 5.931162724675D+03 PE=-6.782656705885D+04 EE= 2.900238250467D+04
 SMD-CDS (non-electrostatic) energy       (kcal/mol) =     -21.50
 (included in total energy above)
 Leave Link  502 at Sat Feb  8 12:51:49 2025, MaxMem=  7247757312 cpu:          193534.2 elap:            6115.7
 (Enter /ihome/crc/install/gaussian/c01/avx2/tar/g16/l601.exe)
 Copying SCF densities to generalized density rwf, IOpCl= 0 IROHF=0.
 Hyperfine terms turned off by default for NAtoms > 100.

 **********************************************************************

            Population analysis using the SCF Density.

 **********************************************************************

 Alpha  occ. eigenvalues --  -89.02092 -89.01891 -24.71507 -24.71460 -24.71086
 Alpha  occ. eigenvalues --  -24.71064 -24.71036 -24.70984 -24.70677 -24.68106
 Alpha  occ. eigenvalues --  -19.14446 -19.13314 -19.12491 -19.12407 -19.08570
 Alpha  occ. eigenvalues --  -19.08236 -19.08102 -19.08011 -14.39832 -14.37986
 Alpha  occ. eigenvalues --  -14.37950 -14.32975 -14.28986 -14.27104 -10.42116
 Alpha  occ. eigenvalues --  -10.42012 -10.30497 -10.30118 -10.29720 -10.27101
 Alpha  occ. eigenvalues --  -10.26323 -10.25286 -10.23647 -10.23071 -10.22923
 Alpha  occ. eigenvalues --  -10.22841 -10.22548 -10.22228 -10.21296 -10.21221
 Alpha  occ. eigenvalues --  -10.21038 -10.21019 -10.20865 -10.20839 -10.20790
 Alpha  occ. eigenvalues --  -10.20734 -10.20523 -10.20457 -10.20246 -10.20199
 Alpha  occ. eigenvalues --  -10.20003 -10.19940 -10.19875 -10.19845 -10.19799
 Alpha  occ. eigenvalues --  -10.19747 -10.19736 -10.19500 -10.19439 -10.19080
 Alpha  occ. eigenvalues --  -10.18967 -10.18875 -10.18840 -10.18773 -10.18749
 Alpha  occ. eigenvalues --  -10.18665 -10.18658 -10.18573 -10.18499 -10.18456
 Alpha  occ. eigenvalues --  -10.18381 -10.18370 -10.18315 -10.18287 -10.18217
 Alpha  occ. eigenvalues --  -10.18161 -10.18155 -10.18127 -10.18117 -10.18063
 Alpha  occ. eigenvalues --  -10.18039 -10.18039 -10.17982 -10.17972 -10.17816
 Alpha  occ. eigenvalues --  -10.17782 -10.17690 -10.17583 -10.17563 -10.17533
 Alpha  occ. eigenvalues --  -10.17490 -10.17490 -10.17462 -10.17442 -10.17431
 Alpha  occ. eigenvalues --  -10.17419 -10.17365 -10.17354 -10.17329 -10.17302
 Alpha  occ. eigenvalues --  -10.17267 -10.17256 -10.17206 -10.17095 -10.17092
 Alpha  occ. eigenvalues --  -10.16948 -10.16679 -10.15795 -10.15791 -10.14467
 Alpha  occ. eigenvalues --   -8.06627  -8.06400  -6.85838  -6.02946  -6.02865
 Alpha  occ. eigenvalues --   -6.02832  -6.02725  -6.02630  -6.02615  -4.88752
 Alpha  occ. eigenvalues --   -4.86870  -4.86843  -1.93470  -1.92891  -1.92873
 Alpha  occ. eigenvalues --   -1.91282  -1.91281  -1.32183  -1.32082  -1.24609
 Alpha  occ. eigenvalues --   -1.23150  -1.23077  -1.22792  -1.22691  -1.22435
 Alpha  occ. eigenvalues --   -1.10350  -1.08751  -1.08507  -1.06809  -1.06563
 Alpha  occ. eigenvalues --   -1.04359  -1.03880  -0.97932  -0.97719  -0.97020
 Alpha  occ. eigenvalues --   -0.96807  -0.95885  -0.91190  -0.89570  -0.88505
 Alpha  occ. eigenvalues --   -0.88119  -0.87776  -0.87608  -0.87464  -0.86898
 Alpha  occ. eigenvalues --   -0.85974  -0.85572  -0.84797  -0.83539  -0.83305
 Alpha  occ. eigenvalues --   -0.82112  -0.81077  -0.80927  -0.80478  -0.79729
 Alpha  occ. eigenvalues --   -0.79017  -0.78717  -0.78690  -0.78319  -0.78097
 Alpha  occ. eigenvalues --   -0.77822  -0.77184  -0.76966  -0.76632  -0.76423
 Alpha  occ. eigenvalues --   -0.75917  -0.75779  -0.75185  -0.74384  -0.74133
 Alpha  occ. eigenvalues --   -0.74091  -0.73620  -0.73545  -0.73143  -0.72543
 Alpha  occ. eigenvalues --   -0.72137  -0.71901  -0.71326  -0.70642  -0.70286
 Alpha  occ. eigenvalues --   -0.70158  -0.69921  -0.69329  -0.68952  -0.68437
 Alpha  occ. eigenvalues --   -0.66874  -0.66527  -0.65623  -0.65086  -0.64981
 Alpha  occ. eigenvalues --   -0.64522  -0.64244  -0.63600  -0.63495  -0.63123
 Alpha  occ. eigenvalues --   -0.63082  -0.62890  -0.62554  -0.62432  -0.62210
 Alpha  occ. eigenvalues --   -0.62079  -0.61361  -0.61210  -0.61082  -0.60809
 Alpha  occ. eigenvalues --   -0.60408  -0.59923  -0.59803  -0.59725  -0.59617
 Alpha  occ. eigenvalues --   -0.59344  -0.59204  -0.58783  -0.57904  -0.57712
 Alpha  occ. eigenvalues --   -0.57415  -0.57334  -0.56964  -0.56020  -0.55396
 Alpha  occ. eigenvalues --   -0.55155  -0.54925  -0.54703  -0.54444  -0.53919
 Alpha  occ. eigenvalues --   -0.53785  -0.53640  -0.52513  -0.52285  -0.51993
 Alpha  occ. eigenvalues --   -0.51812  -0.51517  -0.51210  -0.50866  -0.50849
 Alpha  occ. eigenvalues --   -0.50652  -0.50583  -0.50527  -0.50155  -0.49912
 Alpha  occ. eigenvalues --   -0.49789  -0.49429  -0.48851  -0.48801  -0.48641
 Alpha  occ. eigenvalues --   -0.48334  -0.48200  -0.48035  -0.47915  -0.47752
 Alpha  occ. eigenvalues --   -0.47677  -0.47629  -0.47592  -0.47457  -0.47374
 Alpha  occ. eigenvalues --   -0.47260  -0.47160  -0.47028  -0.46904  -0.46731
 Alpha  occ. eigenvalues --   -0.46663  -0.46509  -0.46454  -0.46218  -0.46034
 Alpha  occ. eigenvalues --   -0.45871  -0.45735  -0.45681  -0.45337  -0.45120
 Alpha  occ. eigenvalues --   -0.44938  -0.44902  -0.44787  -0.44641  -0.44412
 Alpha  occ. eigenvalues --   -0.44282  -0.44252  -0.44032  -0.43996  -0.43877
 Alpha  occ. eigenvalues --   -0.43787  -0.43772  -0.43463  -0.43420  -0.43216
 Alpha  occ. eigenvalues --   -0.43150  -0.42985  -0.42936  -0.42749  -0.42723
 Alpha  occ. eigenvalues --   -0.42631  -0.42497  -0.42447  -0.42372  -0.42283
 Alpha  occ. eigenvalues --   -0.42202  -0.42078  -0.41949  -0.41915  -0.41900
 Alpha  occ. eigenvalues --   -0.41734  -0.41583  -0.41459  -0.41407  -0.41328
 Alpha  occ. eigenvalues --   -0.41060  -0.40599  -0.40473  -0.40220  -0.40117
 Alpha  occ. eigenvalues --   -0.39906  -0.39758  -0.39731  -0.39549  -0.39211
 Alpha  occ. eigenvalues --   -0.39073  -0.38867  -0.38810  -0.38650  -0.38380
 Alpha  occ. eigenvalues --   -0.38275  -0.38142  -0.37975  -0.37593  -0.37330
 Alpha  occ. eigenvalues --   -0.37274  -0.37166  -0.36826  -0.36729  -0.36708
 Alpha  occ. eigenvalues --   -0.36513  -0.36400  -0.36232  -0.36079  -0.35836
 Alpha  occ. eigenvalues --   -0.35801  -0.35671  -0.35564  -0.35472  -0.35361
 Alpha  occ. eigenvalues --   -0.35174  -0.35120  -0.34957  -0.34719  -0.34678
 Alpha  occ. eigenvalues --   -0.34409  -0.34380  -0.34341  -0.33975  -0.33886
 Alpha  occ. eigenvalues --   -0.33654  -0.33179  -0.32960  -0.32793  -0.32701
 Alpha  occ. eigenvalues --   -0.32325  -0.31805  -0.31521  -0.31269  -0.31010
 Alpha  occ. eigenvalues --   -0.30944  -0.30925  -0.30668  -0.30086  -0.29801
 Alpha  occ. eigenvalues --   -0.29492  -0.29315  -0.28665  -0.28291  -0.28121
 Alpha  occ. eigenvalues --   -0.27916  -0.27827  -0.27508  -0.27203  -0.27115
 Alpha  occ. eigenvalues --   -0.26809  -0.26616  -0.26538  -0.26324  -0.26253
 Alpha  occ. eigenvalues --   -0.26206  -0.25928  -0.25791  -0.25643  -0.25615
 Alpha  occ. eigenvalues --   -0.25229  -0.24918  -0.24611  -0.24315  -0.24094
 Alpha  occ. eigenvalues --   -0.23691  -0.23515  -0.23278  -0.22565  -0.22391
 Alpha  occ. eigenvalues --   -0.21194  -0.20804  -0.19722
 Alpha virt. eigenvalues --   -0.07686  -0.06724  -0.06629  -0.06438  -0.05134
 Alpha virt. eigenvalues --   -0.04980  -0.04433  -0.04181  -0.03833  -0.03249
 Alpha virt. eigenvalues --   -0.02665  -0.02560  -0.02092  -0.01893  -0.01595
 Alpha virt. eigenvalues --   -0.01296  -0.01040  -0.00674  -0.00006   0.00360
 Alpha virt. eigenvalues --    0.00763   0.00951   0.01243   0.01501   0.01801
 Alpha virt. eigenvalues --    0.02407   0.03047   0.03646   0.03966   0.04360
 Alpha virt. eigenvalues --    0.04464   0.04692   0.04763   0.05230   0.05515
 Alpha virt. eigenvalues --    0.05728   0.05812   0.05871   0.05985   0.06075
 Alpha virt. eigenvalues --    0.06343   0.06448   0.06668   0.06827   0.06914
 Alpha virt. eigenvalues --    0.07203   0.07257   0.07538   0.07704   0.07783
 Alpha virt. eigenvalues --    0.07831   0.08058   0.08156   0.08372   0.08398
 Alpha virt. eigenvalues --    0.08606   0.08656   0.08780   0.08924   0.09034
 Alpha virt. eigenvalues --    0.09193   0.09253   0.09475   0.09698   0.09759
 Alpha virt. eigenvalues --    0.09767   0.09974   0.10185   0.10339   0.10373
 Alpha virt. eigenvalues --    0.10546   0.10669   0.10759   0.10920   0.10968
 Alpha virt. eigenvalues --    0.11033   0.11158   0.11323   0.11459   0.11544
 Alpha virt. eigenvalues --    0.11591   0.11627   0.11783   0.11969   0.11998
 Alpha virt. eigenvalues --    0.12087   0.12247   0.12295   0.12399   0.12516
 Alpha virt. eigenvalues --    0.12788   0.12927   0.12973   0.13105   0.13124
 Alpha virt. eigenvalues --    0.13216   0.13440   0.13589   0.13628   0.13729
 Alpha virt. eigenvalues --    0.13791   0.13884   0.14066   0.14165   0.14240
 Alpha virt. eigenvalues --    0.14280   0.14347   0.14520   0.14740   0.14782
 Alpha virt. eigenvalues --    0.14910   0.14972   0.15154   0.15190   0.15259
 Alpha virt. eigenvalues --    0.15441   0.15564   0.15720   0.15864   0.15900
 Alpha virt. eigenvalues --    0.16068   0.16120   0.16200   0.16344   0.16469
 Alpha virt. eigenvalues --    0.16683   0.16733   0.16813   0.17002   0.17164
 Alpha virt. eigenvalues --    0.17314   0.17428   0.17502   0.17626   0.17667
 Alpha virt. eigenvalues --    0.17830   0.17930   0.17962   0.18179   0.18331
 Alpha virt. eigenvalues --    0.18583   0.18723   0.18750   0.18839   0.19117
 Alpha virt. eigenvalues --    0.19152   0.19213   0.19339   0.19516   0.19554
 Alpha virt. eigenvalues --    0.19639   0.19756   0.19876   0.20061   0.20236
 Alpha virt. eigenvalues --    0.20330   0.20534   0.20672   0.20780   0.20831
 Alpha virt. eigenvalues --    0.20999   0.21009   0.21098   0.21195   0.21255
 Alpha virt. eigenvalues --    0.21382   0.21462   0.21576   0.21729   0.21886
 Alpha virt. eigenvalues --    0.21935   0.21998   0.22060   0.22127   0.22265
 Alpha virt. eigenvalues --    0.22375   0.22446   0.22476   0.22609   0.22697
 Alpha virt. eigenvalues --    0.22858   0.22913   0.23066   0.23118   0.23246
 Alpha virt. eigenvalues --    0.23605   0.23648   0.23795   0.23898   0.23971
 Alpha virt. eigenvalues --    0.24030   0.24075   0.24220   0.24282   0.24305
 Alpha virt. eigenvalues --    0.24478   0.24571   0.24684   0.24736   0.24818
 Alpha virt. eigenvalues --    0.25017   0.25136   0.25222   0.25302   0.25367
 Alpha virt. eigenvalues --    0.25515   0.25532   0.25729   0.25846   0.25912
 Alpha virt. eigenvalues --    0.25997   0.26214   0.26303   0.26341   0.26516
 Alpha virt. eigenvalues --    0.26673   0.26736   0.26815   0.27003   0.27066
 Alpha virt. eigenvalues --    0.27217   0.27269   0.27388   0.27570   0.27615
 Alpha virt. eigenvalues --    0.27803   0.27899   0.27924   0.28055   0.28141
 Alpha virt. eigenvalues --    0.28246   0.28448   0.28500   0.28580   0.28652
 Alpha virt. eigenvalues --    0.28777   0.28885   0.29024   0.29045   0.29136
 Alpha virt. eigenvalues --    0.29304   0.29355   0.29446   0.29663   0.29761
 Alpha virt. eigenvalues --    0.29883   0.29986   0.30021   0.30091   0.30186
 Alpha virt. eigenvalues --    0.30276   0.30346   0.30524   0.30554   0.30697
 Alpha virt. eigenvalues --    0.30763   0.30799   0.30984   0.31088   0.31198
 Alpha virt. eigenvalues --    0.31299   0.31470   0.31497   0.31627   0.31710
 Alpha virt. eigenvalues --    0.31763   0.31817   0.32004   0.32215   0.32369
[...]
 Alpha virt. eigenvalues --    6.11841   6.12597   6.13026   6.14732   6.15667
 Alpha virt. eigenvalues --    6.16148   6.17213   6.19443   6.21100   6.21191
 Alpha virt. eigenvalues --    6.22655   6.23357   6.23453   6.24201   6.25774
 Alpha virt. eigenvalues --    6.26292   6.30147   6.34908   6.35795   6.36499
 Alpha virt. eigenvalues --    6.39411   6.43212   6.44498   6.45132   6.45921
 Alpha virt. eigenvalues --    6.46188   6.46629   6.46906   6.47683   6.48279
 Alpha virt. eigenvalues --    6.48336   6.54102   6.55237   6.55890   6.57582
 Alpha virt. eigenvalues --    6.57892   6.58521   6.58841   6.61202   6.61370
 Alpha virt. eigenvalues --    6.67508   6.67631   6.69661   6.69978   6.71510
 Alpha virt. eigenvalues --    6.73197   6.75159   6.76132   6.76782   6.77427
 Alpha virt. eigenvalues --    6.78931   6.78977   6.79114   6.79652   6.80081
 Alpha virt. eigenvalues --    6.82759   6.82849   6.83216   6.83465   6.84096
 Alpha virt. eigenvalues --    6.84289   6.84658   6.84771   6.84936   6.85356
 Alpha virt. eigenvalues --    6.85485   6.85516   6.85888   6.86058   6.86153
 Alpha virt. eigenvalues --    6.86629   6.86708   6.86836   6.87046   6.87264
 Alpha virt. eigenvalues --    6.87299   6.87483   6.87984   6.88818   6.89454
 Alpha virt. eigenvalues --    6.90768   6.91093   6.91734   6.93118   6.96241
 Alpha virt. eigenvalues --    6.97411   6.97504   6.97662   6.97678   6.97969
 Alpha virt. eigenvalues --    6.98189   7.00808   7.01598   7.01747   7.01831
 Alpha virt. eigenvalues --    7.01917   7.02741   7.04030   7.05236   7.05570
 Alpha virt. eigenvalues --    7.08850   7.09149   7.09236   7.09875   7.10661
 Alpha virt. eigenvalues --    7.13444   7.13507   7.13581   7.13748   7.15271
 Alpha virt. eigenvalues --    7.19367   7.20236   7.20565   7.24145   7.24308
 Alpha virt. eigenvalues --    7.27373   7.30393   7.33865   7.36005   7.36619
 Alpha virt. eigenvalues --    7.36722   7.36754   7.37260   7.40060   7.41894
 Alpha virt. eigenvalues --    7.44015   7.44098   7.45540   7.48920   7.49054
 Alpha virt. eigenvalues --    7.50403   7.57417   7.58124   7.59331   7.59409
 Alpha virt. eigenvalues --    7.62963   7.62997   7.64606   7.68223   7.90287
 Alpha virt. eigenvalues --    7.92196   8.01751   8.07076   8.26895   8.28402
 Alpha virt. eigenvalues --    8.30364   8.30756   8.31252   8.31448   8.36086
 Alpha virt. eigenvalues --    8.43963   8.45484   8.45882   8.49406   8.49652
 Alpha virt. eigenvalues --    8.56953   8.57698   8.57879   8.64128   8.67714
 Alpha virt. eigenvalues --    8.67925   8.75481   8.75774   8.76266   8.78778
 Alpha virt. eigenvalues --    8.78796   8.86476   8.89028   8.89332   8.95068
 Alpha virt. eigenvalues --    8.95493   8.98122   8.99664   9.00186   9.01390
 Alpha virt. eigenvalues --    9.02452   9.04452   9.10193   9.10355   9.11879
 Alpha virt. eigenvalues --    9.16324   9.16879   9.25050   9.57613   9.58998
 Alpha virt. eigenvalues --    9.79222   9.86405  10.16212  10.19855  22.56651
 Alpha virt. eigenvalues --   22.64248  22.66220  22.70109  22.71769  22.85525
 Alpha virt. eigenvalues --   22.88183  22.88922  22.89686  22.93214  22.93982
 Alpha virt. eigenvalues --   22.96973  23.00535  23.01391  23.02968  23.03597
 Alpha virt. eigenvalues --   23.05048  23.05315  23.06093  23.07097  23.08129
 Alpha virt. eigenvalues --   23.10142  23.10603  23.11880  23.13031  23.13099
 Alpha virt. eigenvalues --   23.13906  23.14131  23.15940  23.16335  23.16952
 Alpha virt. eigenvalues --   23.17485  23.18690  23.19016  23.19026  23.19775
 Alpha virt. eigenvalues --   23.21291  23.21757  23.22691  23.23304  23.24862
 Alpha virt. eigenvalues --   23.25526  23.25903  23.26026  23.26387  23.27283
 Alpha virt. eigenvalues --   23.27795  23.28679  23.30756  23.31149  23.31761
 Alpha virt. eigenvalues --   23.32701  23.33830  23.34642  23.34934  23.35447
 Alpha virt. eigenvalues --   23.35945  23.37681  23.38601  23.40483  23.41158
 Alpha virt. eigenvalues --   23.42107  23.42478  23.42791  23.44414  23.44861
 Alpha virt. eigenvalues --   23.46360  23.51369  23.52771  23.53831  23.55743
 Alpha virt. eigenvalues --   23.59504  23.62118  23.62712  23.74774  23.81223
 Alpha virt. eigenvalues --   23.82065  23.82299  23.92691  23.93924  24.13069
 Alpha virt. eigenvalues --   24.13287  24.14933  24.16415  24.22730  24.28191
 Alpha virt. eigenvalues --   24.33016  24.41253  32.52292  32.62015  32.89452
 Alpha virt. eigenvalues --   33.03532  33.29123  33.34741  34.63554  34.72475
 Alpha virt. eigenvalues --   34.96797  43.23098  44.00055  44.01016  44.05236
 Alpha virt. eigenvalues --   44.19992  44.23250  44.27016  44.27175  44.28554
 Alpha virt. eigenvalues --   57.11721  57.15846  57.23702  57.25390  57.45255
 Alpha virt. eigenvalues --   57.46165  57.47293  57.79322 117.92271
          Condensed to atoms (all electrons):
 Mulliken charges:
               1
     1  C    0.411989
     2  C   -0.495711
     3  C    0.061116
     4  C   -0.185508
     5  C    0.153518
     6  N   -0.369340
     7  H    0.127157
     8  C   -0.143637
     9  C    0.100833
    10  C   -0.170826
    11  C   -0.157492
    12  C   -0.130944
    13  H    0.137036
    14  H    0.148847
    15  H    0.151398
    16  C    0.315695
    17  C    0.179307
    18  C   -0.253766
    19  C   -0.252939
    20  C   -0.150239
    21  H    0.143670
    22  C   -0.133422
    23  H    0.128999
    24  C   -0.187855
    25  H    0.147719
    26  H    0.147286
    27  H    0.149310
    28  F   -0.219953
    29  C   -0.244650
    30  H    0.082502
    31  H    0.109497
    32  H    0.106942
    33  C   -0.042496
    34  C    0.004279
    35  C    0.019335
    36  H    0.087357
    37  H    0.073046
    38  C   -0.012040
    39  H    0.096175
    40  H    0.069565
    41  H    0.056715
    42  H    0.094417
    43  H    0.068397
    44  H    0.091594
    45  N   -0.106194
    46  O   -0.341921
    47  I    0.179679
    48  H    0.219398
    49  C   -0.145543
    50  C   -0.183859
    51  C   -0.026418
    52  C   -0.061007
    53  C   -0.144261
    54  C   -0.139852
    55  H    0.151970
    56  H    0.159028
    57  C    0.050681
    58  C   -0.080035
    59  H    0.144354
    60  H    0.150644
    61  C   -0.159007
    62  C   -0.067315
    63  H    0.144003
    64  C    0.119015
    65  C   -0.110067
    66  C   -0.067479
    67  C   -0.097544
    68  C   -0.043417
    69  C   -0.183818
    70  C   -0.108063
    71  C   -0.140939
    72  C   -0.143115
    73  H    0.161952
    74  H    0.145152
    75  C   -0.140740
    76  H    0.144479
    77  H    0.152473
    78  H    0.151127
    79  S    0.892630
    80  O   -0.525508
    81  O   -0.534028
    82  S    0.884506
    83  O   -0.512881
    84  O   -0.570744
    85  N   -0.419447
    86  C    0.025342
    87  C    0.295361
    88  C    0.026632
    89  C    0.221916
    90  C   -0.050070
    91  C   -0.168916
    92  C   -0.240212
    93  C   -0.089935
    94  C   -0.088310
    95  H    0.208225
    96  C   -0.144514
    97  H    0.158031
    98  H    0.147613
    99  H    0.143151
   100  C   -0.126736
   101  C   -0.143033
   102  C   -0.157337
   103  C   -0.123869
   104  H    0.160930
   105  C   -0.096871
   106  C   -0.163594
   107  H    0.163293
   108  H    0.155336
   109  H    0.151957
   110  C    0.545442
   111  F   -0.189432
   112  F   -0.188060
   113  F   -0.191194
   114  C    0.543867
   115  F   -0.188229
   116  F   -0.189390
   117  F   -0.186961
   118  N   -0.176382
   119  C    0.293700
   120  C   -0.119030
   121  C   -0.085570
   122  C    0.189055
   123  O   -0.314439
   124  O   -0.440718
   125  H    0.109755
   126  H    0.109714
   127  H    0.110693
   128  H    0.105697
   129  C    0.112657
   130  C   -0.175623
   131  C    0.015484
   132  C   -0.141298
   133  C    0.153277
   134  N   -0.065634
   135  H    0.151858
   136  C   -0.174191
   137  C    0.345915
   138  C   -0.270914
   139  C   -0.300454
   140  C   -0.092167
   141  H    0.175129
   142  H    0.192668
   143  H    0.153888
   144  C    0.390529
   145  C   -0.066765
   146  C   -0.182760
   147  C   -0.174119
   148  C   -0.171790
   149  H    0.158282
   150  C   -0.187013
   151  H    0.158625
   152  C   -0.145109
   153  H    0.158205
   154  H    0.149835
   155  H    0.154638
   156  F   -0.227358
   157  C   -0.255694
   158  H    0.117002
   159  H    0.116525
   160  H    0.093422
   161  C   -0.055212
   162  C   -0.022439
   163  C    0.023177
   164  H    0.097644
   165  H    0.093896
   166  C   -0.019670
   167  H    0.089341
   168  H    0.103968
   169  H    0.070486
   170  H    0.102734
   171  H    0.083609
   172  H    0.109250
   173  N   -0.062084
   174  O   -0.334115
   175  H    0.156105
   176  H    0.282576
 Sum of Mulliken charges =  -0.00000
 Mulliken charges with hydrogens summed into heavy atoms:
               1
     1  C    0.411989
     2  C   -0.276313
     3  C    0.061116
     4  C   -0.058351
     5  C    0.153518
     6  N   -0.369340
     8  C   -0.143637
     9  C    0.100833
    10  C   -0.033789
    11  C   -0.006093
    12  C    0.017903
    16  C    0.315695
    17  C    0.179307
    18  C   -0.110096
    19  C   -0.123940
    20  C   -0.002520
    22  C    0.013864
    24  C   -0.038545
    28  F   -0.219953
    29  C    0.054291
    33  C    0.117908
    34  C    0.170019
    35  C    0.170466
    38  C    0.147951
    45  N   -0.106194
    46  O   -0.341921
    47  I    0.179679
    49  C    0.006427
    50  C   -0.024830
    51  C   -0.026418
    52  C   -0.061007
    53  C    0.000093
    54  C    0.010793
    57  C    0.050681
    58  C    0.063968
    61  C   -0.159007
    62  C   -0.067315
    64  C    0.119015
    65  C   -0.110067
    66  C   -0.067479
    67  C   -0.097544
    68  C   -0.043417
    69  C   -0.021866
    70  C    0.037089
    71  C    0.003540
    72  C    0.009358
    75  C    0.010388
    79  S    0.892630
    80  O   -0.525508
    81  O   -0.534028
    82  S    0.884506
    83  O   -0.512881
    84  O   -0.570744
    85  N   -0.419447
    86  C    0.025342
    87  C    0.295361
    88  C    0.026632
    89  C    0.221916
    90  C   -0.050070
    91  C   -0.168916
    92  C   -0.031987
    93  C    0.068096
    94  C    0.059304
    96  C   -0.001363
   100  C   -0.126736
   101  C    0.017897
   102  C   -0.157337
   103  C    0.039424
   105  C    0.058464
   106  C   -0.011636
   110  C    0.545442
   111  F   -0.189432
   112  F   -0.188060
   113  F   -0.191194
   114  C    0.543867
   115  F   -0.188229
   116  F   -0.189390
   117  F   -0.186961
   118  N   -0.176382
   119  C    0.293700
   120  C    0.100440
   121  C    0.130820
   122  C    0.189055
   123  O   -0.314439
   124  O   -0.440718
   129  C    0.112657
   130  C   -0.019518
   131  C    0.015484
   132  C    0.010560
   133  C    0.153277
   134  N    0.216942
   136  C   -0.174191
   137  C    0.345915
   138  C   -0.095785
   139  C   -0.146566
   140  C    0.100501
   144  C    0.390529
   145  C   -0.066765
   146  C   -0.024478
   147  C   -0.015494
   148  C   -0.013584
   150  C   -0.037178
   152  C    0.009529
   156  F   -0.227358
   157  C    0.071255
   161  C    0.136328
   162  C    0.170871
   163  C    0.196397
   166  C    0.173188
   173  N   -0.062084
   174  O   -0.334115
 Electronic spatial extent (au):  <R**2>=         143693.5241
 Charge=             -0.0000 electrons
 Dipole moment (field-independent basis, Debye):
    X=              6.7573    Y=            -28.2683    Z=            -25.5962  Tot=             38.7288
 Quadrupole moment (field-independent basis, Debye-Ang):
   XX=           -685.1858   YY=           -443.4479   ZZ=           -441.6536
   XY=            -26.0734   XZ=              2.7280   YZ=            222.0526
 Traceless Quadrupole moment (field-independent basis, Debye-Ang):
   XX=           -161.7567   YY=             79.9812   ZZ=             81.7755
   XY=            -26.0734   XZ=              2.7280   YZ=            222.0526
 Octapole moment (field-independent basis, Debye-Ang**2):
  XXX=            639.9826  YYY=           2205.0385  ZZZ=           1903.9866  XYY=           -187.8089
  XXY=           1397.9620  XXZ=           1240.9229  XZZ=           -116.3443  YZZ=           -386.2061
  YYZ=           -315.1790  XYZ=           -157.4150
 Hexadecapole moment (field-independent basis, Debye-Ang**3):
 XXXX=         -52661.2020 YYYY=         -63476.0935 ZZZZ=         -41147.5262 XXXY=           1036.8418
 XXXZ=           3074.8341 YYYX=           3156.4875 YYYZ=          -5695.9280 ZZZX=           4496.5564
 ZZZY=          -3069.8301 XXYY=         -22280.9279 XXZZ=         -18477.1027 YYZZ=         -10449.3356
 XXYZ=          -5287.3923 YYXZ=           2750.6727 ZZXY=           1714.7017
 N-N= 2.675099912681D+04 E-N=-6.782656705210D+04  KE= 5.931162724675D+03
 Leave Link  601 at Sat Feb  8 12:51:51 2025, MaxMem=  7247757312 cpu:              48.3 elap:               2.7
 (Enter /ihome/crc/install/gaussian/c01/avx2/tar/g16/l9999.exe)
 Unable to Open any file for archive entry.
 1\1\GINC-SMP-N252\SP\RB3LYP\def2TZVPP\C86H65F8I1N6O8S2\BIM12\08-Feb-20
 25\0\\#p b3lyp def2tzvpp scf=maxcycle=128 nosymm scrf=(smd,solvent=pro
 pylethanoate) empiricaldispersion=gd3bj\\alkyneCF3_S-ax-R_01_iodi_comp
 \\0,1\C,0,1.898308,-2.055621,-0.686178\C,0,0.502841,-2.173785,-0.64348
 5\C,0,-0.107389,-2.467838,0.591277\C,0,0.704104,-2.72146,1.689226\C,0,
 2.109966,-2.664799,1.537227\N,0,2.662774,-2.280512,0.380048\H,0,0.2392
 55,-2.955572,2.644895\C,0,2.629395,-1.598521,-1.91066\C,0,3.931118,-2.
 053291,-2.242322\C,0,4.640973,-1.435578,-3.280053\C,0,2.809872,0.05885
 3,-3.721716\C,0,4.097257,-0.377779,-4.005866\H,0,5.637199,-1.805435,-3
 .528623\H,0,4.672205,0.097594,-4.802177\H,0,2.332739,0.878678,-4.25987
 9\C,0,2.106614,-0.562643,-2.697602\C,0,4.595201,-3.190202,-1.543906\C,
 0,5.927994,-3.075899,-1.128279\C,0,3.927402,-4.404378,-1.329296\C,0,6.
 568895,-4.136752,-0.484835\H,0,6.459765,-2.135804,-1.290731\C,0,4.5638
 38,-5.462178,-0.686567\H,0,2.892056,-4.51246,-1.660222\C,0,5.887484,-5
 .33104,-0.256109\H,0,7.603839,-4.024238,-0.156133\H,0,4.023904,-6.3965
 87,-0.521485\H,0,6.384749,-6.159646,0.251435\F,0,0.869262,-0.121691,-2
 .473672\C,0,-1.605231,-2.487707,0.733139\H,0,-2.101956,-2.370443,-0.23
 8639\H,0,-1.943443,-3.417953,1.215143\H,0,-1.920519,-1.64017,1.362163\
 C,0,2.557844,-3.10299,3.933314\C,0,4.408307,-2.796825,2.375879\C,0,3.4
 4347,-4.083002,4.689322\H,0,1.524582,-3.459632,4.003029\H,0,2.611032,-
 2.107194,4.414206\C,0,5.188695,-3.803128,3.202119\H,0,4.665762,-2.9076
 55,1.316467\H,0,4.679071,-1.770101,2.69289\H,0,3.25261,-5.106353,4.310
 627\H,0,3.198047,-4.056063,5.759564\H,0,5.024777,-4.817976,2.788805\H,
 0,6.262813,-3.576404,3.153804\N,0,2.979226,-3.015676,2.545372\O,0,4.80
 6363,-3.769311,4.556425\I,0,-0.132182,-4.918471,-1.525212\H,0,-0.11039
 2,-1.904748,-1.499231\C,0,-4.430087,5.92297,-2.138236\C,0,-4.133676,4.
 780601,-1.433475\C,0,-2.787422,4.340769,-1.290666\C,0,-1.760087,5.0949
 36,-1.926107\C,0,-2.094927,6.279869,-2.640032\C,0,-3.400905,6.689163,-
 2.740089\H,0,-5.469132,6.240345,-2.239858\H,0,-4.93947,4.197659,-0.987
 111\C,0,-2.435995,3.155943,-0.561204\C,0,-0.423156,4.638544,-1.864784\
 H,0,-1.290984,6.847713,-3.112565\H,0,-3.652536,7.59632,-3.291843\C,0,-
 0.089968,3.467742,-1.209756\C,0,-1.117816,2.728011,-0.534846\H,0,0.359
 668,5.211804,-2.364537\C,0,-3.52941,2.381838,0.125038\C,0,-3.866887,1.
 096495,-0.263129\C,0,-4.17339,2.9721,1.264169\C,0,-4.817309,0.323829,0
 .481033\C,0,-5.186634,2.237381,1.945578\C,0,-3.823262,4.258412,1.76435
 6\C,0,-5.479988,0.914718,1.54017\C,0,-5.851094,2.82087,3.06098\C,0,-4.
 474599,4.793435,2.850055\H,0,-3.022865,4.82235,1.285756\H,0,-6.21598,0
 .335712,2.10069\C,0,-5.508163,4.074612,3.500643\H,0,-6.6296,2.243334,3
 .563504\H,0,-4.188256,5.779728,3.218615\H,0,-6.018135,4.515617,4.35857
 6\S,0,-0.804543,1.095006,0.155559\O,0,-1.466227,1.059633,1.428631\O,0,
 0.598944,0.831989,0.183126\S,0,-2.882892,0.381914,-1.581026\O,0,-2.854
 608,1.357604,-2.631359\O,0,-3.41466,-0.897833,-1.959492\N,0,-1.48075,0
 .148085,-0.912262\C,0,1.280853,3.047166,-1.244471\C,0,2.444679,2.70519
 2,-1.285206\C,0,-5.046187,-1.068532,0.226577\C,0,-5.17787,-2.263253,0.
 058409\C,0,-5.14152,-3.649949,-0.301237\C,0,-5.944927,-4.63209,0.30754
 8\C,0,-4.236998,-4.039861,-1.304277\C,0,-5.842176,-5.966245,-0.07763\C
 ,0,-4.139028,-5.37491,-1.683695\H,0,-3.619976,-3.267246,-1.767172\C,0,
 -4.938977,-6.340095,-1.072138\H,0,-6.46858,-6.71597,0.405756\H,0,-3.42
 7689,-5.658979,-2.463194\H,0,-4.859291,-7.388882,-1.360126\C,0,3.75005
 9,2.123266,-1.175739\C,0,3.900764,1.017892,-0.322172\C,0,4.868804,2.58
 5903,-1.894136\C,0,5.141934,0.404348,-0.180161\H,0,3.019416,0.646121,0
 .205297\C,0,6.109983,1.974159,-1.740759\C,0,6.249597,0.88696,-0.877962
 \H,0,5.233071,-0.465814,0.473259\H,0,6.967504,2.346092,-2.301858\H,0,7
 .225244,0.412716,-0.759913\C,0,4.697323,3.714593,-2.872812\F,0,5.85363
 8,4.065302,-3.442364\F,0,4.194146,4.812879,-2.301618\F,0,3.861358,3.38
 1726,-3.86562\C,0,-6.912675,-4.226947,1.387293\F,0,-7.610502,-5.267611
 ,1.849284\F,0,-7.798897,-3.325634,0.95105\F,0,-6.290474,-3.677038,2.43
 4586\N,0,-0.604321,-6.734247,-2.342399\C,0,-0.199455,-7.098651,-3.5987
 69\C,0,-0.805222,-8.446292,-3.933516\C,0,-1.501587,-8.892098,-2.649013
 \C,0,-1.370714,-7.715074,-1.6966\O,0,-1.813957,-7.608068,-0.588682\O,0
 ,0.518164,-6.419797,-4.308368\H,0,-1.505383,-8.298338,-4.769327\H,0,-0
 .012087,-9.124515,-4.275296\H,0,-1.023365,-9.762255,-2.178619\H,0,-2.5
 66158,-9.127919,-2.776502\C,0,-1.205461,-5.093898,-6.981371\C,0,-2.107
 26,-5.121206,-8.014544\C,0,-2.014935,-6.145455,-8.991483\C,0,-0.99659,
 -7.074922,-8.916497\C,0,-0.053969,-7.017697,-7.857577\N,0,-0.250962,-6
 .066339,-6.914724\H,0,-0.894836,-7.82444,-9.697609\C,0,-1.173489,-4.04
 3082,-5.936524\C,0,0.016038,-3.388905,-5.537877\C,0,-0.059466,-2.37640
 1,-4.576619\C,0,-2.445803,-2.650194,-4.368226\C,0,-1.270297,-2.000165,
 -4.002396\H,0,0.858889,-1.859841,-4.303807\H,0,-1.299339,-1.193534,-3.
 2678\H,0,-3.40647,-2.376612,-3.931125\C,0,-2.37091,-3.65456,-5.320533\
 C,0,1.359166,-3.70429,-6.102067\C,0,2.426311,-3.939015,-5.223466\C,0,1
 .596225,-3.739301,-7.484188\C,0,3.702491,-4.21443,-5.716032\H,0,2.2463
 44,-3.919655,-4.145514\C,0,2.871199,-4.014195,-7.974724\H,0,0.777021,-
 3.535743,-8.178636\C,0,3.927475,-4.25469,-7.091978\H,0,4.521257,-4.399
 706,-5.017875\H,0,3.044888,-4.028483,-9.052327\H,0,4.925827,-4.467958,
 -7.478467\F,0,-3.498291,-4.294447,-5.656518\C,0,-3.006438,-6.172266,-1
 0.113707\H,0,-4.023727,-6.285827,-9.710605\H,0,-2.981566,-5.218678,-10
 .661138\H,0,-2.806559,-6.991688,-10.814066\C,0,1.119533,-9.119964,-8.4
 05865\C,0,2.127115,-7.553328,-6.820291\C,0,2.487282,-9.266231,-9.05269
 9\H,0,0.331235,-9.2365,-9.154751\H,0,0.99146,-9.909771,-7.645942\C,0,3
 .444438,-7.790041,-7.549398\H,0,2.108849,-6.509848,-6.480592\H,0,2.055
 111,-8.209594,-5.937296\H,0,2.585965,-8.534604,-9.877198\H,0,2.594875,
 -10.277591,-9.465782\H,0,3.558455,-7.024436,-8.34074\H,0,4.27634,-7.68
 6427,-6.840124\N,0,1.014701,-7.824745,-7.734576\O,0,3.508273,-9.077592
 ,-8.106457\H,0,-2.874374,-4.351628,-8.08649\H,0,0.296392,-6.113167,-6.
 040121\\Version=ES64L-G16RevC.01\HF=-6142.0227027\RMSD=7.239e-10\Dipol
 e=2.6585351,-11.1215891,-10.0703328\Quadrupole=-120.2621611,59.4640926
 ,60.7980685,-19.3849232,2.0282361,165.0906621\PG=C01 [X(C86H65F8I1N6O8
 S2)]\\@
 The archive entry for this job was punched.


 THEORY:  SUPPOSITION WHICH HAS SCIENTIFIC BASIS,
          BUT NOT EXPERIMENTALLY PROVEN.
 FACT:    A THEORY WHICH HAS BEEN PROVEN BY ENOUGH 
          MONEY TO PAY FOR THE EXPERIMENTS.

                          --  THE WIZARD OF ID
 Job cpu time:       2 days  6 hours 19 minutes 33.0 seconds.
 Elapsed time:       0 days  1 hours 43 minutes  4.2 seconds.
 File lengths (MBytes):  RWF=  12700 Int=      0 D2E=      0 Chk=   1111 Scr=      1
 Normal termination of Gaussian 16 at Sat Feb  8 12:51:53 2025.
