 Entering Gaussian System, Link 0=g16
 Initial command:
 /opt/packages/gaussian/g16RevC.01/g16/l1.exe "/local/Gau-22378.inp" -scrdir="/local/"
 Entering Link 1 = /opt/packages/gaussian/g16RevC.01/g16/l1.exe PID=     22379.
  
 Copyright (c) 1988-2019, Gaussian, Inc.  All Rights Reserved.
  
 This is part of the Gaussian(R) 16 program.  It is based on
 the Gaussian(R) 09 system (copyright 2009, Gaussian, Inc.),
 the Gaussian(R) 03 system (copyright 2003, Gaussian, Inc.),
 the Gaussian(R) 98 system (copyright 1998, Gaussian, Inc.),
 the Gaussian(R) 94 system (copyright 1995, Gaussian, Inc.),
 the Gaussian 92(TM) system (copyright 1992, Gaussian, Inc.),
 the Gaussian 90(TM) system (copyright 1990, Gaussian, Inc.),
 the Gaussian 88(TM) system (copyright 1988, Gaussian, Inc.),
 the Gaussian 86(TM) system (copyright 1986, Carnegie Mellon
 University), and the Gaussian 82(TM) system (copyright 1983,
 Carnegie Mellon University). Gaussian is a federally registered
 trademark of Gaussian, Inc.
  
 This software contains proprietary and confidential information,
 including trade secrets, belonging to Gaussian, Inc.
  
 This software is provided under written license and may be
 used, copied, transmitted, or stored only in accord with that
 written license.
  
 The following legend is applicable only to US Government
 contracts under FAR:
  
                    RESTRICTED RIGHTS LEGEND
  
 Use, reproduction and disclosure by the US Government is
 subject to restrictions as set forth in subparagraphs (a)
 and (c) of the Commercial Computer Software - Restricted
 Rights clause in FAR 52.227-19.
  
 Gaussian, Inc.
 340 Quinnipiac St., Bldg. 40, Wallingford CT 06492
  
  
 ---------------------------------------------------------------
 Warning -- This program may not be used in any manner that
 competes with the business of Gaussian, Inc. or will provide
 assistance to any competitor of Gaussian, Inc.  The licensee
 of this program is prohibited from giving any competitor of
 Gaussian, Inc. access to this program.  By using this program,
 the user acknowledges that Gaussian, Inc. is engaged in the
 business of creating and licensing software in the field of
 computational chemistry and represents and warrants to the
 licensee that it is not a competitor of Gaussian, Inc. and that
 it will not use this program in any manner prohibited above.
 ---------------------------------------------------------------
  

 Cite this work as:
 Gaussian 16, Revision C.01,
 M. J. Frisch, G. W. Trucks, H. B. Schlegel, G. E. Scuseria, 
 M. A. Robb, J. R. Cheeseman, G. Scalmani, V. Barone, 
 G. A. Petersson, H. Nakatsuji, X. Li, M. Caricato, A. V. Marenich, 
 J. Bloino, B. G. Janesko, R. Gomperts, B. Mennucci, H. P. Hratchian, 
 J. V. Ortiz, A. F. Izmaylov, J. L. Sonnenberg, D. Williams-Young, 
 F. Ding, F. Lipparini, F. Egidi, J. Goings, B. Peng, A. Petrone, 
 T. Henderson, D. Ranasinghe, V. G. Zakrzewski, J. Gao, N. Rega, 
 G. Zheng, W. Liang, M. Hada, M. Ehara, K. Toyota, R. Fukuda, 
 J. Hasegawa, M. Ishida, T. Nakajima, Y. Honda, O. Kitao, H. Nakai, 
 T. Vreven, K. Throssell, J. A. Montgomery, Jr., J. E. Peralta, 
 F. Ogliaro, M. J. Bearpark, J. J. Heyd, E. N. Brothers, K. N. Kudin, 
 V. N. Staroverov, T. A. Keith, R. Kobayashi, J. Normand, 
 K. Raghavachari, A. P. Rendell, J. C. Burant, S. S. Iyengar, 
 J. Tomasi, M. Cossi, J. M. Millam, M. Klene, C. Adamo, R. Cammi, 
 J. W. Ochterski, R. L. Martin, K. Morokuma, O. Farkas, 
 J. B. Foresman, and D. J. Fox, Gaussian, Inc., Wallingford CT, 2019.
 
 ******************************************
 Gaussian 16:  ES64L-G16RevC.01  3-Jul-2019
                13-Nov-2024 
 ******************************************
 %chk=alkyneCF3_R-ax-S_01_iodi_INT1.chk
 %nprocshared=48
 Will use up to   48 processors via shared memory.
 %mem=54GB
 ----------------------------------------------------------------------
 #p b3lyp def2tzvpp scf=maxcycle=128 nosymm scrf=(smd,solvent=propyleth
 anoate) empiricaldispersion=gd3bj guess=read
 ----------------------------------------------------------------------
 1/38=1,172=1/1;
 2/12=2,15=1,17=6,18=5,40=1/2;
 3/5=44,7=202,11=2,25=1,30=1,70=32201,72=169,74=-5,116=-2,124=41/1,2,3;
 4/5=1/1;
 5/5=2,7=128,38=6,53=169/2;
 6/7=2,8=2,9=2,10=2,28=1/1;
 99/5=1,9=1/99;
 Leave Link    1 at Wed Nov 13 23:36:20 2024, MaxMem=  7247757312 cpu:               1.6 elap:               0.0
 (Enter /opt/packages/gaussian/g16RevC.01/g16/l101.exe)
 -------------------
 Title Card Required
 -------------------
 Symbolic Z-matrix:
 Charge =  0 Multiplicity = 1
 C                     0.68131  -1.23382  -1.69034 
 C                    -0.44908  -0.78604  -0.82641 
 C                    -1.01201   0.53717  -1.18286 
 C                    -0.76552   1.06091  -2.40298 
 C                     0.15724   0.38102  -3.2731 
 N                     0.8853   -0.6959   -2.85312 
 H                    -1.16182   2.04142  -2.6565 
 C                     1.57971  -2.36136  -1.30446 
 C                     2.79343  -2.64641  -1.99627 
 C                     3.46971  -3.84669  -1.74953 
 C                     1.90746  -4.45321  -0.03495 
 C                     3.02075  -4.7621   -0.80241 
 H                     4.39988  -4.03685  -2.28618 
 H                     3.56728  -5.69066  -0.6272 
 H                     1.54567  -5.10143   0.76377 
 C                     1.23782  -3.26512  -0.28256 
 C                     3.51356  -1.68692  -2.8808 
 C                     3.84371  -0.41187  -2.39837 
 C                     4.00117  -2.09018  -4.1285 
 C                     4.63094   0.44705  -3.15837 
 H                     3.47683  -0.09406  -1.42009 
 C                     4.79129  -1.22652  -4.89183 
 H                     3.75422  -3.0839   -4.50872 
 C                     5.10923   0.04142  -4.40885 
 H                     4.86482   1.43542  -2.75851 
 H                     5.16053  -1.55164  -5.86649 
 H                     5.72969   0.71529  -5.00296 
 F                     0.20108  -3.01315   0.516 
 C                    -1.84051   1.25043  -0.16979 
 H                    -2.1945    2.21579  -0.55393 
 H                    -2.71216   0.63929   0.12189 
 H                    -1.23024   1.41769   0.73436 
 C                     1.52486   0.34467  -5.31549 
 C                    -0.36856   1.85231  -5.18019 
 C                     2.3787    1.56056  -5.66915 
 H                     1.13059  -0.12044  -6.23239 
 H                     2.10546  -0.38839  -4.74847 
 C                     0.56859   3.00438  -5.52298 
 H                    -0.76496   1.41872  -6.11186 
 H                    -1.21305   2.18521  -4.57098 
 H                     3.19011   1.25607  -6.34289 
 H                     2.82138   1.96895  -4.7421 
 H                     0.02401   3.77375  -6.08785 
 H                     0.95399   3.44685  -4.58394 
 N                     0.39024   0.80081  -4.50813 
 O                     1.62503   2.5507   -6.32813 
 I                    -2.17096  -2.15175  -1.0664 
 H                    -0.24139  -0.89153   0.24104 
 C                     2.21505   4.85775   5.28865 
 C                     2.67003   4.1674    4.19053 
 C                     2.02506   4.30193   2.92827 
 C                     0.87995   5.14375   2.84268 
 C                     0.43608   5.85311   3.99394 
 C                     1.09245   5.71731   5.19116 
 H                     2.72099   4.73829   6.24795 
 H                     3.52786   3.5028    4.29087 
 C                     2.45728   3.59607   1.75601 
 C                     0.17194   5.23016   1.62281 
 H                    -0.44029   6.49786   3.90315 
 H                     0.74775   6.2602    6.07259 
 C                     0.56633   4.51893   0.50305 
 C                     1.74459   3.71142   0.57523 
 H                    -0.72427   5.85091   1.57162 
 C                     3.63032   2.66836   1.88813 
 C                     3.46954   1.29581   1.80991 
 C                     4.93569   3.22521   2.08168 
 C                     4.5804    0.40779   1.97095 
 C                     6.04386   2.34547   2.23796 
 C                     5.17469   4.62818   2.09093 
 C                     5.83529   0.94773   2.18857 
 C                     7.34728   2.88423   2.42842 
 C                     6.44526   5.12077   2.269 
 H                     4.342     5.31657   1.94362 
 H                     6.68799   0.27773   2.3104 
 C                     7.5435    4.24225   2.44733 
 H                     8.1841    2.19391   2.5511 
 H                     6.61218   6.19901   2.26764 
 H                     8.54525   4.65053   2.58993 
 S                     2.2035    2.60244  -0.75374 
 O                     3.62892   2.68265  -0.88746 
 O                     1.44911   2.91651  -1.92924 
 S                     1.87154   0.69339   1.28122 
 O                     0.88795   1.27452   2.15806 
 O                     1.89673  -0.74004   1.26078 
 N                     1.7261    1.19419  -0.20888 
 C                    -0.30451   4.62161  -0.63343 
 C                    -1.18636   4.80219  -1.44812 
 C                     4.50598  -1.02764   1.93261 
 C                     4.62939  -2.2354    1.9315 
 C                     4.83749  -3.65276   1.86259 
 C                     5.85978  -4.18097   1.04596 
 C                     4.0325   -4.54124   2.59108 
 C                     6.06709  -5.55477   0.96848 
 C                     4.24564  -5.91555   2.50897 
 H                     3.22775  -4.15235   3.21585 
 C                     5.26042  -6.42593   1.70154 
 H                     6.86124  -5.94523   0.3319 
 H                     3.60909  -6.59048   3.08358 
 H                     5.42821  -7.50189   1.63933 
 C                    -2.27277   4.98537  -2.36279 
 C                    -3.5552    5.34923  -1.90064 
 C                    -2.08352   4.80349  -3.74074 
 C                    -4.60765   5.52517  -2.79401 
 C                    -3.14195   4.97072  -4.63067 
 H                    -1.087     4.54521  -4.09881 
 C                    -4.40392   5.33208  -4.16093 
 H                    -5.59188   5.8089   -2.42037 
 H                    -2.97685   4.82506  -5.69967 
 H                    -5.23293   5.46668  -4.85648 
 C                    -3.77845   5.55437  -0.42414 
 F                    -3.4341    4.47657   0.29132 
 F                    -5.05983   5.8085   -0.1459 
 F                    -3.06363   6.57785   0.05486 
 C                     6.72785  -3.24595   0.24037 
 F                     6.01597  -2.49486  -0.60335 
 F                     7.62282  -3.91315  -0.49371 
 F                     7.41703  -2.40589   1.02184 
 N                    -4.5008   -3.65284  -0.72885 
 C                    -4.54481  -4.44139   0.30507 
 C                    -5.28912  -5.73801   0.09986 
 C                    -5.87282  -5.54487  -1.29422 
 C                    -5.24027  -4.23351  -1.76505 
 O                    -5.3575   -3.7474   -2.8617 
 O                    -4.00469  -4.20376   1.44875 
 H                    -4.57211  -6.56979   0.16721 
 H                    -6.02897  -5.87132   0.90051 
 H                    -6.96465  -5.4142   -1.28712 
 H                    -5.63641  -6.34514  -2.00702 
 C                    -4.50832  -0.93882   2.04399 
 C                    -4.43423   0.40593   2.36645 
 C                    -3.22938   0.92084   2.87153 
 C                    -2.18101   0.04411   3.08513 
 C                    -2.33722  -1.33501   2.80051 
 N                    -3.48189  -1.79098   2.25692 
 H                    -1.2434    0.43001   3.47656 
 C                    -5.74847  -1.52973   1.45042 
 C                    -6.30655  -1.14079   0.21209 
 C                    -7.40164  -1.85281  -0.29836 
 C                    -7.44354  -3.29444   1.6355 
 C                    -7.96351  -2.91907   0.39858 
 H                    -7.80994  -1.55941  -1.2668 
 H                    -8.81925  -3.45385  -0.01693 
 H                    -7.86222  -4.11041   2.22581 
 C                    -6.35451  -2.59321   2.12858 
 C                    -5.74427  -0.04579  -0.63968 
 C                    -5.92189   1.30861  -0.32565 
 C                    -5.08919  -0.38176  -1.83109 
 C                    -5.40783   2.30329  -1.15642 
 H                    -6.49131   1.5881    0.56214 
 C                    -4.55715   0.61415  -2.65202 
 H                    -4.9942   -1.43355  -2.11101 
 C                    -4.70447   1.95853  -2.3127 
 H                    -5.56991   3.35161  -0.90055 
 H                    -4.02747   0.33115  -3.56424 
 H                    -4.28887   2.7388   -2.95591 
 F                    -5.85122  -2.96119   3.31145 
 C                    -3.08827   2.38804   3.15078 
 H                    -2.07608   2.63697   3.49488 
 H                    -3.29922   2.96559   2.23855 
 H                    -3.81277   2.70903   3.91438 
 C                    -1.63807  -3.56718   3.54737 
 C                    -0.08638  -1.71015   3.64464 
 C                    -0.44112  -4.48782   3.38258 
 H                    -2.49094  -3.98909   3.01091 
 H                    -1.90156  -3.51039   4.622 
 C                     1.04445  -2.71762   3.52674 
 H                     0.23151  -0.80707   3.11227 
 H                    -0.2519   -1.45539   4.71086 
 H                    -0.23222  -4.61711   2.30509 
 H                    -0.66985  -5.46929   3.81973 
 H                     1.34652  -2.80232   2.47019 
 H                     1.90661  -2.35061   4.10157 
 N                    -1.31839  -2.22764   3.05658 
 O                     0.69399  -3.98272   4.04503 
 H                    -5.2972    1.05235   2.22716 
 H                    -3.71663  -3.2058    1.66353 
 
 ITRead=  0  0  0  0  0  0  0  0  0  0  0  0  0  0  0  0  0  0  0  0
 ITRead=  0  0  0  0  0  0  0  0  0  0  0  0  0  0  0  0  0  0  0  0
 ITRead=  0  0  0  0  0  0  0  0  0  0  0  0  0  0  0  0  0  0  0  0
 ITRead=  0  0  0  0  0  0  0  0  0  0  0  0  0  0  0  0  0  0  0  0
 ITRead=  0  0  0  0  0  0  0  0  0  0  0  0  0  0  0  0  0  0  0  0
 ITRead=  0  0  0  0  0  0  0  0  0  0  0  0  0  0  0  0  0  0  0  0
 ITRead=  0  0  0  0  0  0  0  0  0  0  0  0  0  0  0  0  0  0  0  0
 ITRead=  0  0  0  0  0  0  0  0  0  0  0  0  0  0  0  0  0  0  0  0
 ITRead=  0  0  0  0  0  0  0  0  0  0  0  0  0  0  0  0
 MicOpt= -1 -1 -1 -1 -1 -1 -1 -1 -1 -1 -1 -1 -1 -1 -1 -1 -1 -1 -1 -1
 MicOpt= -1 -1 -1 -1 -1 -1 -1 -1 -1 -1 -1 -1 -1 -1 -1 -1 -1 -1 -1 -1
 MicOpt= -1 -1 -1 -1 -1 -1 -1 -1 -1 -1 -1 -1 -1 -1 -1 -1 -1 -1 -1 -1
 MicOpt= -1 -1 -1 -1 -1 -1 -1 -1 -1 -1 -1 -1 -1 -1 -1 -1 -1 -1 -1 -1
 MicOpt= -1 -1 -1 -1 -1 -1 -1 -1 -1 -1 -1 -1 -1 -1 -1 -1 -1 -1 -1 -1
 MicOpt= -1 -1 -1 -1 -1 -1 -1 -1 -1 -1 -1 -1 -1 -1 -1 -1 -1 -1 -1 -1
 MicOpt= -1 -1 -1 -1 -1 -1 -1 -1 -1 -1 -1 -1 -1 -1 -1 -1 -1 -1 -1 -1
 MicOpt= -1 -1 -1 -1 -1 -1 -1 -1 -1 -1 -1 -1 -1 -1 -1 -1 -1 -1 -1 -1
 MicOpt= -1 -1 -1 -1 -1 -1 -1 -1 -1 -1 -1 -1 -1 -1 -1 -1
 NAtoms=    176 NQM=      176 NQMF=       0 NMMI=      0 NMMIF=      0
                NMic=       0 NMicF=      0.
                    Isotopes and Nuclear Properties:
 (Nuclear quadrupole moments (NQMom) in fm**2, nuclear magnetic moments (NMagM)
  in nuclear magnetons)

  Atom         1           2           3           4           5           6           7           8           9          10
 IAtWgt=          12          12          12          12          12          14           1          12          12          12
 AtmWgt=  12.0000000  12.0000000  12.0000000  12.0000000  12.0000000  14.0030740   1.0078250  12.0000000  12.0000000  12.0000000
 NucSpn=           0           0           0           0           0           2           1           0           0           0
 AtZEff=   0.0000000   0.0000000   0.0000000   0.0000000   0.0000000   0.0000000   0.0000000   0.0000000   0.0000000   0.0000000
 NQMom=    0.0000000   0.0000000   0.0000000   0.0000000   0.0000000   2.0440000   0.0000000   0.0000000   0.0000000   0.0000000
 NMagM=    0.0000000   0.0000000   0.0000000   0.0000000   0.0000000   0.4037610   2.7928460   0.0000000   0.0000000   0.0000000
 AtZNuc=   6.0000000   6.0000000   6.0000000   6.0000000   6.0000000   7.0000000   1.0000000   6.0000000   6.0000000   6.0000000

  Atom        11          12          13          14          15          16          17          18          19          20
 IAtWgt=          12          12           1           1           1          12          12          12          12          12
 AtmWgt=  12.0000000  12.0000000   1.0078250   1.0078250   1.0078250  12.0000000  12.0000000  12.0000000  12.0000000  12.0000000
 NucSpn=           0           0           1           1           1           0           0           0           0           0
 AtZEff=   0.0000000   0.0000000   0.0000000   0.0000000   0.0000000   0.0000000   0.0000000   0.0000000   0.0000000   0.0000000
 NQMom=    0.0000000   0.0000000   0.0000000   0.0000000   0.0000000   0.0000000   0.0000000   0.0000000   0.0000000   0.0000000
 NMagM=    0.0000000   0.0000000   2.7928460   2.7928460   2.7928460   0.0000000   0.0000000   0.0000000   0.0000000   0.0000000
 AtZNuc=   6.0000000   6.0000000   1.0000000   1.0000000   1.0000000   6.0000000   6.0000000   6.0000000   6.0000000   6.0000000

  Atom        21          22          23          24          25          26          27          28          29          30
 IAtWgt=           1          12           1          12           1           1           1          19          12           1
 AtmWgt=   1.0078250  12.0000000   1.0078250  12.0000000   1.0078250   1.0078250   1.0078250  18.9984032  12.0000000   1.0078250
 NucSpn=           1           0           1           0           1           1           1           1           0           1
 AtZEff=   0.0000000   0.0000000   0.0000000   0.0000000   0.0000000   0.0000000   0.0000000   0.0000000   0.0000000   0.0000000
 NQMom=    0.0000000   0.0000000   0.0000000   0.0000000   0.0000000   0.0000000   0.0000000   0.0000000   0.0000000   0.0000000
 NMagM=    2.7928460   0.0000000   2.7928460   0.0000000   2.7928460   2.7928460   2.7928460   2.6288670   0.0000000   2.7928460
 AtZNuc=   1.0000000   6.0000000   1.0000000   6.0000000   1.0000000   1.0000000   1.0000000   9.0000000   6.0000000   1.0000000

  Atom        31          32          33          34          35          36          37          38          39          40
 IAtWgt=           1           1          12          12          12           1           1          12           1           1
 AtmWgt=   1.0078250   1.0078250  12.0000000  12.0000000  12.0000000   1.0078250   1.0078250  12.0000000   1.0078250   1.0078250
 NucSpn=           1           1           0           0           0           1           1           0           1           1
 AtZEff=   0.0000000   0.0000000   0.0000000   0.0000000   0.0000000   0.0000000   0.0000000   0.0000000   0.0000000   0.0000000
 NQMom=    0.0000000   0.0000000   0.0000000   0.0000000   0.0000000   0.0000000   0.0000000   0.0000000   0.0000000   0.0000000
 NMagM=    2.7928460   2.7928460   0.0000000   0.0000000   0.0000000   2.7928460   2.7928460   0.0000000   2.7928460   2.7928460
 AtZNuc=   1.0000000   1.0000000   6.0000000   6.0000000   6.0000000   1.0000000   1.0000000   6.0000000   1.0000000   1.0000000

  Atom        41          42          43          44          45          46          47          48          49          50
 IAtWgt=           1           1           1           1          14          16         127           1          12          12
 AtmWgt=   1.0078250   1.0078250   1.0078250   1.0078250  14.0030740  15.9949146 126.9004000   1.0078250  12.0000000  12.0000000
 NucSpn=           1           1           1           1           2           0           5           1           0           0
 AtZEff=   0.0000000   0.0000000   0.0000000   0.0000000   0.0000000   0.0000000   0.0000000   0.0000000   0.0000000   0.0000000
 NQMom=    0.0000000   0.0000000   0.0000000   0.0000000   2.0440000   0.0000000 -71.0000000   0.0000000   0.0000000   0.0000000
 NMagM=    2.7928460   2.7928460   2.7928460   2.7928460   0.4037610   0.0000000   2.8132800   2.7928460   0.0000000   0.0000000
 AtZNuc=   1.0000000   1.0000000   1.0000000   1.0000000   7.0000000   8.0000000  53.0000000   1.0000000   6.0000000   6.0000000

  Atom        51          52          53          54          55          56          57          58          59          60
 IAtWgt=          12          12          12          12           1           1          12          12           1           1
 AtmWgt=  12.0000000  12.0000000  12.0000000  12.0000000   1.0078250   1.0078250  12.0000000  12.0000000   1.0078250   1.0078250
 NucSpn=           0           0           0           0           1           1           0           0           1           1
 AtZEff=   0.0000000   0.0000000   0.0000000   0.0000000   0.0000000   0.0000000   0.0000000   0.0000000   0.0000000   0.0000000
 NQMom=    0.0000000   0.0000000   0.0000000   0.0000000   0.0000000   0.0000000   0.0000000   0.0000000   0.0000000   0.0000000
 NMagM=    0.0000000   0.0000000   0.0000000   0.0000000   2.7928460   2.7928460   0.0000000   0.0000000   2.7928460   2.7928460
 AtZNuc=   6.0000000   6.0000000   6.0000000   6.0000000   1.0000000   1.0000000   6.0000000   6.0000000   1.0000000   1.0000000

  Atom        61          62          63          64          65          66          67          68          69          70
 IAtWgt=          12          12           1          12          12          12          12          12          12          12
 AtmWgt=  12.0000000  12.0000000   1.0078250  12.0000000  12.0000000  12.0000000  12.0000000  12.0000000  12.0000000  12.0000000
 NucSpn=           0           0           1           0           0           0           0           0           0           0
 AtZEff=   0.0000000   0.0000000   0.0000000   0.0000000   0.0000000   0.0000000   0.0000000   0.0000000   0.0000000   0.0000000
 NQMom=    0.0000000   0.0000000   0.0000000   0.0000000   0.0000000   0.0000000   0.0000000   0.0000000   0.0000000   0.0000000
 NMagM=    0.0000000   0.0000000   2.7928460   0.0000000   0.0000000   0.0000000   0.0000000   0.0000000   0.0000000   0.0000000
 AtZNuc=   6.0000000   6.0000000   1.0000000   6.0000000   6.0000000   6.0000000   6.0000000   6.0000000   6.0000000   6.0000000

  Atom        71          72          73          74          75          76          77          78          79          80
 IAtWgt=          12          12           1           1          12           1           1           1          32          16
 AtmWgt=  12.0000000  12.0000000   1.0078250   1.0078250  12.0000000   1.0078250   1.0078250   1.0078250  31.9720718  15.9949146
 NucSpn=           0           0           1           1           0           1           1           1           0           0
 AtZEff=   0.0000000   0.0000000   0.0000000   0.0000000   0.0000000   0.0000000   0.0000000   0.0000000   0.0000000   0.0000000
 NQMom=    0.0000000   0.0000000   0.0000000   0.0000000   0.0000000   0.0000000   0.0000000   0.0000000   0.0000000   0.0000000
 NMagM=    0.0000000   0.0000000   2.7928460   2.7928460   0.0000000   2.7928460   2.7928460   2.7928460   0.0000000   0.0000000
 AtZNuc=   6.0000000   6.0000000   1.0000000   1.0000000   6.0000000   1.0000000   1.0000000   1.0000000  16.0000000   8.0000000

  Atom        81          82          83          84          85          86          87          88          89          90
 IAtWgt=          16          32          16          16          14          12          12          12          12          12
 AtmWgt=  15.9949146  31.9720718  15.9949146  15.9949146  14.0030740  12.0000000  12.0000000  12.0000000  12.0000000  12.0000000
 NucSpn=           0           0           0           0           2           0           0           0           0           0
 AtZEff=   0.0000000   0.0000000   0.0000000   0.0000000   0.0000000   0.0000000   0.0000000   0.0000000   0.0000000   0.0000000
 NQMom=    0.0000000   0.0000000   0.0000000   0.0000000   2.0440000   0.0000000   0.0000000   0.0000000   0.0000000   0.0000000
 NMagM=    0.0000000   0.0000000   0.0000000   0.0000000   0.4037610   0.0000000   0.0000000   0.0000000   0.0000000   0.0000000
 AtZNuc=   8.0000000  16.0000000   8.0000000   8.0000000   7.0000000   6.0000000   6.0000000   6.0000000   6.0000000   6.0000000

  Atom        91          92          93          94          95          96          97          98          99         100
 IAtWgt=          12          12          12          12           1          12           1           1           1          12
 AtmWgt=  12.0000000  12.0000000  12.0000000  12.0000000   1.0078250  12.0000000   1.0078250   1.0078250   1.0078250  12.0000000
 NucSpn=           0           0           0           0           1           0           1           1           1           0
 AtZEff=   0.0000000   0.0000000   0.0000000   0.0000000   0.0000000   0.0000000   0.0000000   0.0000000   0.0000000   0.0000000
 NQMom=    0.0000000   0.0000000   0.0000000   0.0000000   0.0000000   0.0000000   0.0000000   0.0000000   0.0000000   0.0000000
 NMagM=    0.0000000   0.0000000   0.0000000   0.0000000   2.7928460   0.0000000   2.7928460   2.7928460   2.7928460   0.0000000
 AtZNuc=   6.0000000   6.0000000   6.0000000   6.0000000   1.0000000   6.0000000   1.0000000   1.0000000   1.0000000   6.0000000

  Atom       101         102         103         104         105         106         107         108         109         110
 IAtWgt=          12          12          12          12           1          12           1           1           1          12
 AtmWgt=  12.0000000  12.0000000  12.0000000  12.0000000   1.0078250  12.0000000   1.0078250   1.0078250   1.0078250  12.0000000
 NucSpn=           0           0           0           0           1           0           1           1           1           0
 AtZEff=   0.0000000   0.0000000   0.0000000   0.0000000   0.0000000   0.0000000   0.0000000   0.0000000   0.0000000   0.0000000
 NQMom=    0.0000000   0.0000000   0.0000000   0.0000000   0.0000000   0.0000000   0.0000000   0.0000000   0.0000000   0.0000000
 NMagM=    0.0000000   0.0000000   0.0000000   0.0000000   2.7928460   0.0000000   2.7928460   2.7928460   2.7928460   0.0000000
 AtZNuc=   6.0000000   6.0000000   6.0000000   6.0000000   1.0000000   6.0000000   1.0000000   1.0000000   1.0000000   6.0000000

  Atom       111         112         113         114         115         116         117         118         119         120
 IAtWgt=          19          19          19          12          19          19          19          14          12          12
 AtmWgt=  18.9984032  18.9984032  18.9984032  12.0000000  18.9984032  18.9984032  18.9984032  14.0030740  12.0000000  12.0000000
 NucSpn=           1           1           1           0           1           1           1           2           0           0
 AtZEff=   0.0000000   0.0000000   0.0000000   0.0000000   0.0000000   0.0000000   0.0000000   0.0000000   0.0000000   0.0000000
 NQMom=    0.0000000   0.0000000   0.0000000   0.0000000   0.0000000   0.0000000   0.0000000   2.0440000   0.0000000   0.0000000
 NMagM=    2.6288670   2.6288670   2.6288670   0.0000000   2.6288670   2.6288670   2.6288670   0.4037610   0.0000000   0.0000000
 AtZNuc=   9.0000000   9.0000000   9.0000000   6.0000000   9.0000000   9.0000000   9.0000000   7.0000000   6.0000000   6.0000000

  Atom       121         122         123         124         125         126         127         128         129         130
 IAtWgt=          12          12          16          16           1           1           1           1          12          12
 AtmWgt=  12.0000000  12.0000000  15.9949146  15.9949146   1.0078250   1.0078250   1.0078250   1.0078250  12.0000000  12.0000000
 NucSpn=           0           0           0           0           1           1           1           1           0           0
 AtZEff=   0.0000000   0.0000000   0.0000000   0.0000000   0.0000000   0.0000000   0.0000000   0.0000000   0.0000000   0.0000000
 NQMom=    0.0000000   0.0000000   0.0000000   0.0000000   0.0000000   0.0000000   0.0000000   0.0000000   0.0000000   0.0000000
 NMagM=    0.0000000   0.0000000   0.0000000   0.0000000   2.7928460   2.7928460   2.7928460   2.7928460   0.0000000   0.0000000
 AtZNuc=   6.0000000   6.0000000   8.0000000   8.0000000   1.0000000   1.0000000   1.0000000   1.0000000   6.0000000   6.0000000

  Atom       131         132         133         134         135         136         137         138         139         140
 IAtWgt=          12          12          12          14           1          12          12          12          12          12
 AtmWgt=  12.0000000  12.0000000  12.0000000  14.0030740   1.0078250  12.0000000  12.0000000  12.0000000  12.0000000  12.0000000
 NucSpn=           0           0           0           2           1           0           0           0           0           0
 AtZEff=   0.0000000   0.0000000   0.0000000   0.0000000   0.0000000   0.0000000   0.0000000   0.0000000   0.0000000   0.0000000
 NQMom=    0.0000000   0.0000000   0.0000000   2.0440000   0.0000000   0.0000000   0.0000000   0.0000000   0.0000000   0.0000000
 NMagM=    0.0000000   0.0000000   0.0000000   0.4037610   2.7928460   0.0000000   0.0000000   0.0000000   0.0000000   0.0000000
 AtZNuc=   6.0000000   6.0000000   6.0000000   7.0000000   1.0000000   6.0000000   6.0000000   6.0000000   6.0000000   6.0000000

  Atom       141         142         143         144         145         146         147         148         149         150
 IAtWgt=           1           1           1          12          12          12          12          12           1          12
 AtmWgt=   1.0078250   1.0078250   1.0078250  12.0000000  12.0000000  12.0000000  12.0000000  12.0000000   1.0078250  12.0000000
 NucSpn=           1           1           1           0           0           0           0           0           1           0
 AtZEff=   0.0000000   0.0000000   0.0000000   0.0000000   0.0000000   0.0000000   0.0000000   0.0000000   0.0000000   0.0000000
 NQMom=    0.0000000   0.0000000   0.0000000   0.0000000   0.0000000   0.0000000   0.0000000   0.0000000   0.0000000   0.0000000
 NMagM=    2.7928460   2.7928460   2.7928460   0.0000000   0.0000000   0.0000000   0.0000000   0.0000000   2.7928460   0.0000000
 AtZNuc=   1.0000000   1.0000000   1.0000000   6.0000000   6.0000000   6.0000000   6.0000000   6.0000000   1.0000000   6.0000000

  Atom       151         152         153         154         155         156         157         158         159         160
 IAtWgt=           1          12           1           1           1          19          12           1           1           1
 AtmWgt=   1.0078250  12.0000000   1.0078250   1.0078250   1.0078250  18.9984032  12.0000000   1.0078250   1.0078250   1.0078250
 NucSpn=           1           0           1           1           1           1           0           1           1           1
 AtZEff=   0.0000000   0.0000000   0.0000000   0.0000000   0.0000000   0.0000000   0.0000000   0.0000000   0.0000000   0.0000000
 NQMom=    0.0000000   0.0000000   0.0000000   0.0000000   0.0000000   0.0000000   0.0000000   0.0000000   0.0000000   0.0000000
 NMagM=    2.7928460   0.0000000   2.7928460   2.7928460   2.7928460   2.6288670   0.0000000   2.7928460   2.7928460   2.7928460
 AtZNuc=   1.0000000   6.0000000   1.0000000   1.0000000   1.0000000   9.0000000   6.0000000   1.0000000   1.0000000   1.0000000

  Atom       161         162         163         164         165         166         167         168         169         170
 IAtWgt=          12          12          12           1           1          12           1           1           1           1
 AtmWgt=  12.0000000  12.0000000  12.0000000   1.0078250   1.0078250  12.0000000   1.0078250   1.0078250   1.0078250   1.0078250
 NucSpn=           0           0           0           1           1           0           1           1           1           1
 AtZEff=   0.0000000   0.0000000   0.0000000   0.0000000   0.0000000   0.0000000   0.0000000   0.0000000   0.0000000   0.0000000
 NQMom=    0.0000000   0.0000000   0.0000000   0.0000000   0.0000000   0.0000000   0.0000000   0.0000000   0.0000000   0.0000000
 NMagM=    0.0000000   0.0000000   0.0000000   2.7928460   2.7928460   0.0000000   2.7928460   2.7928460   2.7928460   2.7928460
 AtZNuc=   6.0000000   6.0000000   6.0000000   1.0000000   1.0000000   6.0000000   1.0000000   1.0000000   1.0000000   1.0000000

  Atom       171         172         173         174         175         176
 IAtWgt=           1           1          14          16           1           1
 AtmWgt=   1.0078250   1.0078250  14.0030740  15.9949146   1.0078250   1.0078250
 NucSpn=           1           1           2           0           1           1
 AtZEff=   0.0000000   0.0000000   0.0000000   0.0000000   0.0000000   0.0000000
 NQMom=    0.0000000   0.0000000   2.0440000   0.0000000   0.0000000   0.0000000
 NMagM=    2.7928460   2.7928460   0.4037610   0.0000000   2.7928460   2.7928460
 AtZNuc=   1.0000000   1.0000000   7.0000000   8.0000000   1.0000000   1.0000000
 Leave Link  101 at Wed Nov 13 23:36:21 2024, MaxMem=  7247757312 cpu:               3.8 elap:               0.1
 (Enter /opt/packages/gaussian/g16RevC.01/g16/l202.exe)
 Symmetry turned off by external request.
 Stoichiometry    C86H65F8IN6O8S2
 Framework group  C1[X(C86H65F8IN6O8S2)]
 Deg. of freedom   522
 Full point group                 C1      NOp   1
                          Input orientation:                          
 ---------------------------------------------------------------------
 Center     Atomic      Atomic             Coordinates (Angstroms)
 Number     Number       Type             X           Y           Z
 ---------------------------------------------------------------------
      1          6           0        0.681313   -1.233817   -1.690339
      2          6           0       -0.449075   -0.786039   -0.826414
      3          6           0       -1.012013    0.537165   -1.182858
      4          6           0       -0.765521    1.060909   -2.402983
      5          6           0        0.157243    0.381021   -3.273095
      6          7           0        0.885302   -0.695904   -2.853116
      7          1           0       -1.161819    2.041422   -2.656503
      8          6           0        1.579709   -2.361364   -1.304458
      9          6           0        2.793434   -2.646408   -1.996269
     10          6           0        3.469708   -3.846689   -1.749534
     11          6           0        1.907463   -4.453209   -0.034950
     12          6           0        3.020754   -4.762096   -0.802412
     13          1           0        4.399877   -4.036852   -2.286177
     14          1           0        3.567279   -5.690663   -0.627195
     15          1           0        1.545672   -5.101434    0.763768
     16          6           0        1.237824   -3.265122   -0.282563
     17          6           0        3.513561   -1.686924   -2.880801
     18          6           0        3.843706   -0.411872   -2.398374
     19          6           0        4.001168   -2.090178   -4.128502
     20          6           0        4.630938    0.447045   -3.158375
     21          1           0        3.476834   -0.094058   -1.420085
     22          6           0        4.791289   -1.226518   -4.891830
     23          1           0        3.754215   -3.083902   -4.508723
     24          6           0        5.109230    0.041423   -4.408854
     25          1           0        4.864816    1.435418   -2.758507
     26          1           0        5.160526   -1.551639   -5.866486
     27          1           0        5.729689    0.715292   -5.002956
     28          9           0        0.201081   -3.013145    0.515998
     29          6           0       -1.840512    1.250434   -0.169786
     30          1           0       -2.194497    2.215788   -0.553926
     31          1           0       -2.712164    0.639290    0.121886
     32          1           0       -1.230242    1.417691    0.734359
     33          6           0        1.524859    0.344669   -5.315493
     34          6           0       -0.368555    1.852305   -5.180188
     35          6           0        2.378703    1.560562   -5.669149
     36          1           0        1.130594   -0.120439   -6.232390
     37          1           0        2.105464   -0.388390   -4.748468
     38          6           0        0.568585    3.004381   -5.522983
     39          1           0       -0.764961    1.418721   -6.111863
     40          1           0       -1.213045    2.185211   -4.570983
     41          1           0        3.190106    1.256068   -6.342889
     42          1           0        2.821384    1.968948   -4.742097
     43          1           0        0.024009    3.773745   -6.087847
     44          1           0        0.953991    3.446854   -4.583942
     45          7           0        0.390238    0.800814   -4.508126
     46          8           0        1.625030    2.550703   -6.328132
     47         53           0       -2.170955   -2.151748   -1.066402
     48          1           0       -0.241390   -0.891527    0.241037
     49          6           0        2.215048    4.857749    5.288653
     50          6           0        2.670028    4.167399    4.190528
     51          6           0        2.025058    4.301932    2.928265
     52          6           0        0.879950    5.143749    2.842684
     53          6           0        0.436075    5.853114    3.993939
     54          6           0        1.092448    5.717309    5.191164
     55          1           0        2.720986    4.738294    6.247949
     56          1           0        3.527857    3.502796    4.290873
     57          6           0        2.457278    3.596069    1.756011
     58          6           0        0.171942    5.230163    1.622806
     59          1           0       -0.440291    6.497859    3.903148
     60          1           0        0.747753    6.260195    6.072593
     61          6           0        0.566332    4.518935    0.503045
     62          6           0        1.744590    3.711415    0.575226
     63          1           0       -0.724274    5.850906    1.571618
     64          6           0        3.630323    2.668362    1.888126
     65          6           0        3.469539    1.295813    1.809909
     66          6           0        4.935692    3.225212    2.081675
     67          6           0        4.580403    0.407786    1.970948
     68          6           0        6.043863    2.345469    2.237963
     69          6           0        5.174690    4.628176    2.090935
     70          6           0        5.835288    0.947725    2.188571
     71          6           0        7.347284    2.884231    2.428421
     72          6           0        6.445263    5.120770    2.269001
     73          1           0        4.342003    5.316573    1.943622
     74          1           0        6.687990    0.277726    2.310400
     75          6           0        7.543501    4.242248    2.447329
     76          1           0        8.184103    2.193906    2.551103
     77          1           0        6.612179    6.199013    2.267637
     78          1           0        8.545248    4.650528    2.589932
     79         16           0        2.203497    2.602437   -0.753735
     80          8           0        3.628915    2.682651   -0.887455
     81          8           0        1.449109    2.916508   -1.929244
     82         16           0        1.871542    0.693392    1.281224
     83          8           0        0.887946    1.274523    2.158061
     84          8           0        1.896727   -0.740035    1.260780
     85          7           0        1.726100    1.194185   -0.208880
     86          6           0       -0.304514    4.621605   -0.633433
     87          6           0       -1.186362    4.802186   -1.448116
     88          6           0        4.505982   -1.027645    1.932612
     89          6           0        4.629394   -2.235403    1.931499
     90          6           0        4.837494   -3.652758    1.862594
     91          6           0        5.859778   -4.180970    1.045958
     92          6           0        4.032499   -4.541244    2.591078
     93          6           0        6.067092   -5.554773    0.968483
     94          6           0        4.245638   -5.915550    2.508972
     95          1           0        3.227754   -4.152351    3.215847
     96          6           0        5.260424   -6.425928    1.701541
     97          1           0        6.861239   -5.945225    0.331900
     98          1           0        3.609087   -6.590476    3.083579
     99          1           0        5.428215   -7.501893    1.639327
    100          6           0       -2.272765    4.985374   -2.362791
    101          6           0       -3.555199    5.349225   -1.900640
    102          6           0       -2.083515    4.803494   -3.740736
    103          6           0       -4.607650    5.525173   -2.794013
    104          6           0       -3.141947    4.970720   -4.630670
    105          1           0       -1.086996    4.545207   -4.098807
    106          6           0       -4.403924    5.332075   -4.160930
    107          1           0       -5.591877    5.808904   -2.420369
    108          1           0       -2.976850    4.825059   -5.699672
    109          1           0       -5.232926    5.466682   -4.856480
    110          6           0       -3.778445    5.554366   -0.424137
    111          9           0       -3.434098    4.476571    0.291323
    112          9           0       -5.059830    5.808504   -0.145897
    113          9           0       -3.063625    6.577846    0.054863
    114          6           0        6.727845   -3.245945    0.240370
    115          9           0        6.015974   -2.494859   -0.603352
    116          9           0        7.622822   -3.913145   -0.493712
    117          9           0        7.417025   -2.405892    1.021836
    118          7           0       -4.500800   -3.652838   -0.728851
    119          6           0       -4.544810   -4.441391    0.305073
    120          6           0       -5.289117   -5.738010    0.099856
    121          6           0       -5.872822   -5.544867   -1.294222
    122          6           0       -5.240272   -4.233512   -1.765051
    123          8           0       -5.357502   -3.747399   -2.861702
    124          8           0       -4.004692   -4.203762    1.448751
    125          1           0       -4.572110   -6.569787    0.167208
    126          1           0       -6.028968   -5.871318    0.900514
    127          1           0       -6.964652   -5.414204   -1.287121
    128          1           0       -5.636410   -6.345139   -2.007023
    129          6           0       -4.508315   -0.938820    2.043989
    130          6           0       -4.434231    0.405932    2.366446
    131          6           0       -3.229377    0.920840    2.871530
    132          6           0       -2.181010    0.044112    3.085129
    133          6           0       -2.337223   -1.335013    2.800509
    134          7           0       -3.481886   -1.790979    2.256915
    135          1           0       -1.243395    0.430008    3.476555
    136          6           0       -5.748467   -1.529731    1.450420
    137          6           0       -6.306553   -1.140794    0.212090
    138          6           0       -7.401635   -1.852808   -0.298361
    139          6           0       -7.443538   -3.294437    1.635495
    140          6           0       -7.963513   -2.919073    0.398581
    141          1           0       -7.809935   -1.559406   -1.266802
    142          1           0       -8.819246   -3.453853   -0.016926
    143          1           0       -7.862220   -4.110408    2.225807
    144          6           0       -6.354505   -2.593206    2.128581
    145          6           0       -5.744269   -0.045794   -0.639681
    146          6           0       -5.921890    1.308605   -0.325651
    147          6           0       -5.089192   -0.381762   -1.831093
    148          6           0       -5.407834    2.303292   -1.156424
    149          1           0       -6.491309    1.588102    0.562144
    150          6           0       -4.557149    0.614146   -2.652023
    151          1           0       -4.994202   -1.433552   -2.111007
    152          6           0       -4.704469    1.958526   -2.312704
    153          1           0       -5.569914    3.351607   -0.900554
    154          1           0       -4.027474    0.331146   -3.564239
    155          1           0       -4.288872    2.738796   -2.955913
    156          9           0       -5.851215   -2.961186    3.311446
    157          6           0       -3.088270    2.388043    3.150780
    158          1           0       -2.076081    2.636968    3.494884
    159          1           0       -3.299216    2.965585    2.238549
    160          1           0       -3.812772    2.709027    3.914384
    161          6           0       -1.638065   -3.567182    3.547367
    162          6           0       -0.086377   -1.710145    3.644643
    163          6           0       -0.441115   -4.487825    3.382579
    164          1           0       -2.490935   -3.989093    3.010908
    165          1           0       -1.901555   -3.510388    4.622003
    166          6           0        1.044451   -2.717615    3.526744
    167          1           0        0.231509   -0.807069    3.112266
    168          1           0       -0.251904   -1.455394    4.710861
    169          1           0       -0.232218   -4.617108    2.305091
    170          1           0       -0.669854   -5.469286    3.819727
    171          1           0        1.346524   -2.802316    2.470191
    172          1           0        1.906610   -2.350613    4.101573
    173          7           0       -1.318394   -2.227636    3.056581
    174          8           0        0.693985   -3.982723    4.045033
    175          1           0       -5.297199    1.052355    2.227155
    176          1           0       -3.716628   -3.205804    1.663532
 ---------------------------------------------------------------------
 Rotational constants (GHZ):           0.0174682           0.0139382           0.0113279
 Leave Link  202 at Wed Nov 13 23:36:21 2024, MaxMem=  7247757312 cpu:               0.6 elap:               0.0
 (Enter /opt/packages/gaussian/g16RevC.01/g16/l301.exe)
 Standard basis: def2TZVPP (5D, 7F)
 Ernie: Thresh=  0.10000D-02 Tol=  0.10000D-05 Strict=F.
  4392 basis functions,  6860 primitive gaussians,  5018 cartesian basis functions
   408 alpha electrons      408 beta electrons
       nuclear repulsion energy     28176.2707830993 Hartrees.
 IExCor=  402 DFT=T Ex+Corr=B3LYP ExCW=0 ScaHFX=  0.200000
 ScaDFX=  0.800000  0.720000  1.000000  0.810000 ScalE2=  1.000000  1.000000
 IRadAn=      5 IRanWt=     -1 IRanGd=            0 ICorTp=0 IEmpDi=141
 NAtoms=  176 NActive=  176 NUniq=  176 SFac= 1.00D+00 NAtFMM=   60 NAOKFM=T Big=T
 Integral buffers will be    131072 words long.
 Raffenetti 2 integral format.
 Two-electron integral symmetry is turned off.
 R6Disp:  Grimme-D3(BJ) Dispersion energy=       -0.5996346639 Hartrees.
 Nuclear repulsion after empirical dispersion term =    28175.6711484355 Hartrees.
 ------------------------------------------------------------------------------
 Polarizable Continuum Model (PCM)
 =================================
 Model                : PCM.
 Atomic radii         : SMD-Coulomb.
 Polarization charges : Total charges.
 Charge compensation  : None.
 Solution method      : On-the-fly selection.
 Cavity type          : VdW (van der Waals Surface) (Alpha=1.000).
 Cavity algorithm     : GePol (No added spheres)
                        Default sphere list used, NSphG=  176.
                        Lebedev-Laikov grids with approx.  5.0 points / Ang**2.
                        Smoothing algorithm: York/Karplus (Gamma=1.0000).
                        Polarization charges: spherical gaussians, with
                                              point-specific exponents (IZeta= 3).
                        Self-potential: point-specific (ISelfS= 7).
                        Self-field    : sphere-specific E.n sum rule (ISelfD= 2).
 Solvent              : PropylEthanoate, Eps=   5.520500 Eps(inf)=   1.916010
 ------------------------------------------------------------------------------
 GePol: Number of generator spheres                  =     176
 GePol: Total number of spheres                      =     176
 GePol: Number of exposed spheres                    =     175 ( 99.43%)
 GePol: Number of points                             =   11996
 GePol: Average weight of points                     =       0.11
 GePol: Minimum weight of points                     =   0.35D-10
 GePol: Maximum weight of points                     =    0.21501
 GePol: Number of points with low weight             =     878
 GePol: Fraction of low-weight points (<1% of avg)   =       7.32%
 GePol: Cavity surface area                          =   1283.689 Ang**2
 GePol: Cavity volume                                =   1545.203 Ang**3
 ------------------------------------------------------------------------------
 Atomic radii for non-electrostatic terms: SMD-CDS.
 ------------------------------------------------------------------------------
 PCM non-electrostatic energy =        -0.0305703265 Hartrees.
 Nuclear repulsion after PCM non-electrostatic terms =    28175.6405781090 Hartrees.
 Leave Link  301 at Wed Nov 13 23:36:21 2024, MaxMem=  7247757312 cpu:               9.1 elap:               0.2
 (Enter /opt/packages/gaussian/g16RevC.01/g16/l302.exe)
 NPDir=0 NMtPBC=     1 NCelOv=     1 NCel=       1 NClECP=     1 NCelD=      1
         NCelK=      1 NCelE2=     1 NClLst=     1 CellRange=     0.0.
 One-electron integrals computed using PRISM.
   1 Symmetry operations used in ECPInt.
 ECPInt:  NShTT= 1316253 NPrTT= 3826671 LenC2=  772076 LenP2D= 1405844.
 LDataN:  DoStor=T MaxTD1= 7 Len=  274
 Number of processors reduced to  10 by ecpmxn.
 NBasis=  4392 RedAO= T EigKep=  1.74D-06  NBF=  4392
 NBsUse=  4392 1.00D-06 EigRej= -1.00D+00 NBFU=  4392
 Precomputing XC quadrature grid using
 IXCGrd= 4 IRadAn=           5 IRanWt=          -1 IRanGd=           0 AccXCQ= 0.00D+00.
 Defaulting to unpruned grid for atomic number  53.
 Generated NRdTot=       0 NPtTot=           0 NUsed=           0 NTot=          32
 NSgBfM=  3642  3626  3628  3629  3642 MxSgAt=   176 MxSgA2=   176.
 Leave Link  302 at Wed Nov 13 23:37:14 2024, MaxMem=  7247757312 cpu:            2403.9 elap:              52.9
 (Enter /opt/packages/gaussian/g16RevC.01/g16/l303.exe)
 DipDrv:  MaxL=1.
 Leave Link  303 at Wed Nov 13 23:37:17 2024, MaxMem=  7247757312 cpu:              85.2 elap:               2.3
 (Enter /opt/packages/gaussian/g16RevC.01/g16/l401.exe)
 Initial guess from the checkpoint file:  "alkyneCF3_R-ax-S_01_iodi_INT1.chk"
 B after Tr=     0.000000    0.000000    0.000000
         Rot=    1.000000    0.000000    0.000000    0.000000 Ang=   0.00 deg.
 Guess basis will be translated and rotated to current coordinates.
 JPrj=2 DoOrth=T DoCkMO=T.
 Leave Link  401 at Wed Nov 13 23:37:31 2024, MaxMem=  7247757312 cpu:             693.1 elap:              14.6
 (Enter /opt/packages/gaussian/g16RevC.01/g16/l502.exe)
 Two-electron integral symmetry not used.
 Closed shell SCF:
 Using DIIS extrapolation, IDIIS=  1040.
 NGot=  7247757312 LenX=  7197121040 LenY=  7171935698
 Requested convergence on RMS density matrix=1.00D-08 within 128 cycles.
 Requested convergence on MAX density matrix=1.00D-06.
 Requested convergence on             energy=1.00D-06.
 No special actions if energy rises.
 Fock matrices will be formed incrementally for  20 cycles.

 Cycle   1  Pass 1  IDiag  1:
 FoFJK:  IHMeth= 1 ICntrl=       0 DoSepK=F KAlg= 0 I1Cent=           0 FoldK=F
 IRaf= 530000000 NMat=       1 IRICut=       1 DoRegI=T DoRafI=F ISym2E= 0 IDoP0=0 IntGTp=1.
 FoFCou: FMM=T IPFlag=           0 FMFlag=      100000 FMFlg1=        2001
         NFxFlg=           0 DoJE=F BraDBF=F KetDBF=F FulRan=T
         wScrn=  0.000000 ICntrl=         0 IOpCl=  0 I1Cent=           0 NGrid=           0
         NMat0=    1 NMatS0=      1 NMatT0=    0 NMatD0=    1 NMtDS0=    0 NMtDT0=    0
 Symmetry not used in FoFCou.
 FMM levels:  10  Number of levels for PrismC:   9
 Defaulting to unpruned grid for atomic number  53.
 Defaulting to unpruned grid for atomic number  53.
 Defaulting to unpruned grid for atomic number  53.
 Defaulting to unpruned grid for atomic number  53.
 Defaulting to unpruned grid for atomic number  53.
 Defaulting to unpruned grid for atomic number  53.
 Defaulting to unpruned grid for atomic number  53.
 Defaulting to unpruned grid for atomic number  53.
 Defaulting to unpruned grid for atomic number  53.
 Defaulting to unpruned grid for atomic number  53.
 Defaulting to unpruned grid for atomic number  53.
 Defaulting to unpruned grid for atomic number  53.
 Defaulting to unpruned grid for atomic number  53.
 Defaulting to unpruned grid for atomic number  53.
 Defaulting to unpruned grid for atomic number  53.
 Defaulting to unpruned grid for atomic number  53.
 Defaulting to unpruned grid for atomic number  53.
 Defaulting to unpruned grid for atomic number  53.
 Defaulting to unpruned grid for atomic number  53.
 Defaulting to unpruned grid for atomic number  53.
 Defaulting to unpruned grid for atomic number  53.
 Defaulting to unpruned grid for atomic number  53.
 Defaulting to unpruned grid for atomic number  53.
 Defaulting to unpruned grid for atomic number  53.
 Defaulting to unpruned grid for atomic number  53.
 Defaulting to unpruned grid for atomic number  53.
 Defaulting to unpruned grid for atomic number  53.
 Defaulting to unpruned grid for atomic number  53.
 Defaulting to unpruned grid for atomic number  53.
 Defaulting to unpruned grid for atomic number  53.
 Defaulting to unpruned grid for atomic number  53.
 Defaulting to unpruned grid for atomic number  53.
 Defaulting to unpruned grid for atomic number  53.
 Defaulting to unpruned grid for atomic number  53.
 Defaulting to unpruned grid for atomic number  53.
 Defaulting to unpruned grid for atomic number  53.
 Defaulting to unpruned grid for atomic number  53.
 Defaulting to unpruned grid for atomic number  53.
 Defaulting to unpruned grid for atomic number  53.
 Defaulting to unpruned grid for atomic number  53.
 Defaulting to unpruned grid for atomic number  53.
 Defaulting to unpruned grid for atomic number  53.
 Defaulting to unpruned grid for atomic number  53.
 Defaulting to unpruned grid for atomic number  53.
 Defaulting to unpruned grid for atomic number  53.
 Defaulting to unpruned grid for atomic number  53.
 Defaulting to unpruned grid for atomic number  53.
 Defaulting to unpruned grid for atomic number  53.
 Inv3:  Mode=1 IEnd=   431712048.
 Iteration    1 A*A^-1 deviation from unit magnitude is 5.22D-15 for   8376.
 Iteration    1 A*A^-1 deviation from orthogonality  is 3.10D-15 for   3725   1566.
 Iteration    1 A^-1*A deviation from unit magnitude is 5.22D-15 for   8376.
 Iteration    1 A^-1*A deviation from orthogonality  is 8.11D-15 for  10190   8329.
 E= -6139.31976685141    
 DIIS: error= 5.80D-02 at cycle   1 NSaved=   1.
 NSaved= 1 IEnMin= 1 EnMin= -6139.31976685141     IErMin= 1 ErrMin= 5.80D-02
 ErrMax= 5.80D-02  0.00D+00 EMaxC= 1.00D-01 BMatC= 3.47D+01 BMatP= 3.47D+01
 IDIUse=3 WtCom= 4.20D-01 WtEn= 5.80D-01
 Coeff-Com:  0.100D+01
 Coeff-En:   0.100D+01
 Coeff:      0.100D+01
 Gap=     0.106 Goal=   None    Shift=    0.000
 GapD=    0.106 DampG=1.000 DampE=0.500 DampFc=0.5000 IDamp=-1.
 Damping current iteration by 5.00D-01
 RMSDP=1.32D-02 MaxDP=6.16D+00              OVMax= 3.53D-02

 Cycle   2  Pass 1  IDiag  1:
 RMSU=  1.37D-03    CP:  5.46D-01
 E= -6140.65857937338     Delta-E=       -1.338812521964 Rises=F Damp=T
 DIIS: error= 2.92D-02 at cycle   2 NSaved=   2.
 NSaved= 2 IEnMin= 2 EnMin= -6140.65857937338     IErMin= 2 ErrMin= 2.92D-02
 ErrMax= 2.92D-02  0.00D+00 EMaxC= 1.00D-01 BMatC= 8.77D+00 BMatP= 3.47D+01
 IDIUse=3 WtCom= 7.08D-01 WtEn= 2.92D-01
 Coeff-Com: -0.101D+01 0.201D+01
 Coeff-En:   0.000D+00 0.100D+01
 Coeff:     -0.714D+00 0.171D+01
 Gap=     0.109 Goal=   None    Shift=    0.000
 RMSDP=6.56D-03 MaxDP=3.02D+00 DE=-1.34D+00 OVMax= 1.90D-02

 Cycle   3  Pass 1  IDiag  1:
 RMSU=  2.87D-04    CP:  9.79D-02  2.04D+00
 E= -6141.99644144452     Delta-E=       -1.337862071145 Rises=F Damp=F
 DIIS: error= 7.48D-04 at cycle   3 NSaved=   3.
 NSaved= 3 IEnMin= 3 EnMin= -6141.99644144452     IErMin= 3 ErrMin= 7.48D-04
 ErrMax= 7.48D-04  0.00D+00 EMaxC= 1.00D-01 BMatC= 1.35D-02 BMatP= 8.77D+00
 IDIUse=3 WtCom= 9.93D-01 WtEn= 7.48D-03
 Coeff-Com: -0.394D+00 0.782D+00 0.612D+00
 Coeff-En:   0.000D+00 0.000D+00 0.100D+01
 Coeff:     -0.391D+00 0.776D+00 0.615D+00
 Gap=     0.107 Goal=   None    Shift=    0.000
 RMSDP=7.86D-05 MaxDP=2.87D-02 DE=-1.34D+00 OVMax= 1.67D-02

 Cycle   4  Pass 1  IDiag  1:
 RMSU=  5.74D-05    CP:  9.63D-02  2.03D+00  8.33D-01
 E= -6142.00761217738     Delta-E=       -0.011170732862 Rises=F Damp=F
 DIIS: error= 2.44D-04 at cycle   4 NSaved=   4.
 NSaved= 4 IEnMin= 4 EnMin= -6142.00761217738     IErMin= 4 ErrMin= 2.44D-04
 ErrMax= 2.44D-04  0.00D+00 EMaxC= 1.00D-01 BMatC= 1.67D-03 BMatP= 1.35D-02
 IDIUse=3 WtCom= 9.98D-01 WtEn= 2.44D-03
 Coeff-Com: -0.185D+00 0.368D+00 0.353D+00 0.465D+00
 Coeff-En:   0.000D+00 0.000D+00 0.000D+00 0.100D+01
 Coeff:     -0.185D+00 0.367D+00 0.352D+00 0.466D+00
 Gap=     0.108 Goal=   None    Shift=    0.000
 RMSDP=2.22D-05 MaxDP=7.18D-03 DE=-1.12D-02 OVMax= 9.35D-03

 Cycle   5  Pass 1  IDiag  1:
 RMSU=  1.73D-05    CP:  9.65D-02  2.03D+00  8.53D-01  7.91D-01
 E= -6142.00895426214     Delta-E=       -0.001342084761 Rises=F Damp=F
 DIIS: error= 6.47D-05 at cycle   5 NSaved=   5.
 NSaved= 5 IEnMin= 5 EnMin= -6142.00895426214     IErMin= 5 ErrMin= 6.47D-05
 ErrMax= 6.47D-05  0.00D+00 EMaxC= 1.00D-01 BMatC= 1.48D-04 BMatP= 1.67D-03
 IDIUse=1 WtCom= 1.00D+00 WtEn= 0.00D+00
 Coeff-Com: -0.505D-01 0.100D+00 0.118D+00 0.261D+00 0.571D+00
 Coeff:     -0.505D-01 0.100D+00 0.118D+00 0.261D+00 0.571D+00
 Gap=     0.107 Goal=   None    Shift=    0.000
 RMSDP=7.82D-06 MaxDP=2.47D-03 DE=-1.34D-03 OVMax= 2.57D-03

 Cycle   6  Pass 1  IDiag  1:
 RMSU=  5.46D-06    CP:  9.66D-02  2.03D+00  8.67D-01  7.70D-01  8.19D-01
 E= -6142.00906892804     Delta-E=       -0.000114665898 Rises=F Damp=F
 DIIS: error= 2.67D-05 at cycle   6 NSaved=   6.
 NSaved= 6 IEnMin= 6 EnMin= -6142.00906892804     IErMin= 6 ErrMin= 2.67D-05
 ErrMax= 2.67D-05  0.00D+00 EMaxC= 1.00D-01 BMatC= 2.09D-05 BMatP= 1.48D-04
 IDIUse=1 WtCom= 1.00D+00 WtEn= 0.00D+00
 Coeff-Com: -0.117D-01 0.233D-01 0.356D-01 0.108D+00 0.335D+00 0.510D+00
 Coeff:     -0.117D-01 0.233D-01 0.356D-01 0.108D+00 0.335D+00 0.510D+00
 Gap=     0.107 Goal=   None    Shift=    0.000
 RMSDP=2.79D-06 MaxDP=9.98D-04 DE=-1.15D-04 OVMax= 8.64D-04

 Cycle   7  Pass 1  IDiag  1:
 RMSU=  1.89D-06    CP:  9.66D-02  2.03D+00  8.69D-01  7.88D-01  8.05D-01
                    CP:  6.88D-01
 E= -6142.00908495705     Delta-E=       -0.000016029007 Rises=F Damp=F
 DIIS: error= 1.25D-05 at cycle   7 NSaved=   7.
 NSaved= 7 IEnMin= 7 EnMin= -6142.00908495705     IErMin= 7 ErrMin= 1.25D-05
 ErrMax= 1.25D-05  0.00D+00 EMaxC= 1.00D-01 BMatC= 3.18D-06 BMatP= 2.09D-05
 IDIUse=1 WtCom= 1.00D+00 WtEn= 0.00D+00
 Coeff-Com: -0.520D-03 0.101D-02 0.602D-02 0.334D-01 0.134D+00 0.318D+00
 Coeff-Com:  0.508D+00
 Coeff:     -0.520D-03 0.101D-02 0.602D-02 0.334D-01 0.134D+00 0.318D+00
 Coeff:      0.508D+00
 Gap=     0.107 Goal=   None    Shift=    0.000
 RMSDP=1.07D-06 MaxDP=3.99D-04 DE=-1.60D-05 OVMax= 3.19D-04

 Cycle   8  Pass 1  IDiag  1:
 RMSU=  6.87D-07    CP:  9.66D-02  2.03D+00  8.70D-01  7.86D-01  8.16D-01
                    CP:  7.47D-01  6.62D-01
 E= -6142.00908750769     Delta-E=       -0.000002550645 Rises=F Damp=F
 DIIS: error= 6.62D-06 at cycle   8 NSaved=   8.
 NSaved= 8 IEnMin= 8 EnMin= -6142.00908750769     IErMin= 8 ErrMin= 6.62D-06
 ErrMax= 6.62D-06  0.00D+00 EMaxC= 1.00D-01 BMatC= 4.28D-07 BMatP= 3.18D-06
 IDIUse=1 WtCom= 1.00D+00 WtEn= 0.00D+00
 Coeff-Com:  0.891D-03-0.177D-02-0.101D-03 0.972D-02 0.486D-01 0.143D+00
 Coeff-Com:  0.325D+00 0.475D+00
 Coeff:      0.891D-03-0.177D-02-0.101D-03 0.972D-02 0.486D-01 0.143D+00
 Coeff:      0.325D+00 0.475D+00
 Gap=     0.107 Goal=   None    Shift=    0.000
 RMSDP=3.53D-07 MaxDP=1.62D-04 DE=-2.55D-06 OVMax= 1.02D-04

 Cycle   9  Pass 1  IDiag  1:
 RMSU=  2.44D-07    CP:  9.66D-02  2.03D+00  8.70D-01  7.88D-01  8.19D-01
                    CP:  7.43D-01  7.08D-01  6.95D-01
 E= -6142.00908787919     Delta-E=       -0.000000371492 Rises=F Damp=F
 DIIS: error= 2.40D-06 at cycle   9 NSaved=   9.
 NSaved= 9 IEnMin= 9 EnMin= -6142.00908787919     IErMin= 9 ErrMin= 2.40D-06
 ErrMax= 2.40D-06  0.00D+00 EMaxC= 1.00D-01 BMatC= 5.07D-08 BMatP= 4.28D-07
 IDIUse=1 WtCom= 1.00D+00 WtEn= 0.00D+00
 Coeff-Com:  0.629D-03-0.125D-02-0.956D-03 0.169D-02 0.129D-01 0.457D-01
 Coeff-Com:  0.136D+00 0.298D+00 0.507D+00
 Coeff:      0.629D-03-0.125D-02-0.956D-03 0.169D-02 0.129D-01 0.457D-01
 Coeff:      0.136D+00 0.298D+00 0.507D+00
 Gap=     0.107 Goal=   None    Shift=    0.000
 RMSDP=1.19D-07 MaxDP=4.36D-05 DE=-3.71D-07 OVMax= 3.10D-05

 Cycle  10  Pass 1  IDiag  1:
 RMSU=  8.58D-08    CP:  9.66D-02  2.03D+00  8.70D-01  7.88D-01  8.21D-01
                    CP:  7.45D-01  7.21D-01  7.37D-01  7.47D-01
 E= -6142.00908791962     Delta-E=       -0.000000040436 Rises=F Damp=F
 DIIS: error= 7.23D-07 at cycle  10 NSaved=  10.
 NSaved=10 IEnMin=10 EnMin= -6142.00908791962     IErMin=10 ErrMin= 7.23D-07
 ErrMax= 7.23D-07  0.00D+00 EMaxC= 1.00D-01 BMatC= 5.61D-09 BMatP= 5.07D-08
 IDIUse=1 WtCom= 1.00D+00 WtEn= 0.00D+00
 Coeff-Com:  0.252D-03-0.500D-03-0.557D-03-0.223D-03 0.169D-02 0.867D-02
 Coeff-Com:  0.378D-01 0.116D+00 0.303D+00 0.534D+00
 Coeff:      0.252D-03-0.500D-03-0.557D-03-0.223D-03 0.169D-02 0.867D-02
 Coeff:      0.378D-01 0.116D+00 0.303D+00 0.534D+00
 Gap=     0.107 Goal=   None    Shift=    0.000
 RMSDP=3.58D-08 MaxDP=9.25D-06 DE=-4.04D-08 OVMax= 1.09D-05

 Cycle  11  Pass 1  IDiag  1:
 RMSU=  2.39D-08    CP:  9.66D-02  2.03D+00  8.70D-01  7.88D-01  8.21D-01
                    CP:  7.46D-01  7.23D-01  7.44D-01  7.87D-01  7.95D-01
 E= -6142.00908792486     Delta-E=       -0.000000005235 Rises=F Damp=F
 DIIS: error= 3.90D-07 at cycle  11 NSaved=  11.
 NSaved=11 IEnMin=11 EnMin= -6142.00908792486     IErMin=11 ErrMin= 3.90D-07
 ErrMax= 3.90D-07  0.00D+00 EMaxC= 1.00D-01 BMatC= 7.11D-10 BMatP= 5.61D-09
 IDIUse=1 WtCom= 1.00D+00 WtEn= 0.00D+00
 Coeff-Com:  0.780D-04-0.155D-03-0.222D-03-0.358D-03-0.450D-03-0.151D-03
 Coeff-Com:  0.669D-02 0.353D-01 0.125D+00 0.323D+00 0.512D+00
 Coeff:      0.780D-04-0.155D-03-0.222D-03-0.358D-03-0.450D-03-0.151D-03
 Coeff:      0.669D-02 0.353D-01 0.125D+00 0.323D+00 0.512D+00
 Gap=     0.107 Goal=   None    Shift=    0.000
 RMSDP=1.36D-08 MaxDP=6.74D-06 DE=-5.24D-09 OVMax= 3.56D-06

 Cycle  12  Pass 1  IDiag  1:
 RMSU=  9.50D-09    CP:  9.66D-02  2.03D+00  8.70D-01  7.88D-01  8.21D-01
                    CP:  7.46D-01  7.23D-01  7.49D-01  8.08D-01  8.13D-01
                    CP:  7.73D-01
 E= -6142.00908792605     Delta-E=       -0.000000001197 Rises=F Damp=F
 DIIS: error= 9.69D-08 at cycle  12 NSaved=  12.
 NSaved=12 IEnMin=12 EnMin= -6142.00908792605     IErMin=12 ErrMin= 9.69D-08
 ErrMax= 9.69D-08  0.00D+00 EMaxC= 1.00D-01 BMatC= 9.46D-11 BMatP= 7.11D-10
 IDIUse=1 WtCom= 1.00D+00 WtEn= 0.00D+00
 Coeff-Com:  0.106D-04-0.210D-04-0.495D-04-0.194D-03-0.475D-03-0.132D-02
 Coeff-Com: -0.160D-02 0.380D-02 0.301D-01 0.111D+00 0.303D+00 0.556D+00
 Coeff:      0.106D-04-0.210D-04-0.495D-04-0.194D-03-0.475D-03-0.132D-02
 Coeff:     -0.160D-02 0.380D-02 0.301D-01 0.111D+00 0.303D+00 0.556D+00
 Gap=     0.107 Goal=   None    Shift=    0.000
 RMSDP=4.78D-09 MaxDP=1.27D-06 DE=-1.20D-09 OVMax= 1.53D-06

 Cycle  13  Pass 1  IDiag  1:
 RMSU=  3.51D-09    CP:  9.66D-02  2.03D+00  8.70D-01  7.88D-01  8.21D-01
                    CP:  7.46D-01  7.23D-01  7.51D-01  8.09D-01  8.25D-01
                    CP:  8.19D-01  7.79D-01
 E= -6142.00908792527     Delta-E=        0.000000000782 Rises=F Damp=F
 DIIS: error= 2.68D-08 at cycle  13 NSaved=  13.
 NSaved=13 IEnMin=12 EnMin= -6142.00908792605     IErMin=13 ErrMin= 2.68D-08
 ErrMax= 2.68D-08  0.00D+00 EMaxC= 1.00D-01 BMatC= 1.75D-11 BMatP= 9.46D-11
 IDIUse=1 WtCom= 1.00D+00 WtEn= 0.00D+00
 Coeff-Com: -0.533D-05 0.106D-04 0.421D-05-0.740D-04-0.241D-03-0.854D-03
 Coeff-Com: -0.218D-02-0.351D-02-0.954D-03 0.177D-01 0.107D+00 0.352D+00
 Coeff-Com:  0.531D+00
 Coeff:     -0.533D-05 0.106D-04 0.421D-05-0.740D-04-0.241D-03-0.854D-03
 Coeff:     -0.218D-02-0.351D-02-0.954D-03 0.177D-01 0.107D+00 0.352D+00
 Coeff:      0.531D+00
 Gap=     0.107 Goal=   None    Shift=    0.000
 RMSDP=2.10D-09 MaxDP=5.35D-07 DE= 7.82D-10 OVMax= 6.88D-07

 Error on total polarization charges =  0.09323
 SCF Done:  E(RB3LYP) =  -6142.00908793     A.U. after   13 cycles
            NFock= 13  Conv=0.21D-08     -V/T= 2.0355
 KE= 5.931200167846D+03 PE=-7.067350042933D+04 EE= 3.042465059545D+04
 SMD-CDS (non-electrostatic) energy       (kcal/mol) =     -19.18
 (included in total energy above)
 Leave Link  502 at Thu Nov 14 01:54:47 2024, MaxMem=  7247757312 cpu:          391123.1 elap:            8235.1
 (Enter /opt/packages/gaussian/g16RevC.01/g16/l601.exe)
 Copying SCF densities to generalized density rwf, IOpCl= 0 IROHF=0.
 Hyperfine terms turned off by default for NAtoms > 100.

 **********************************************************************

            Population analysis using the SCF Density.

 **********************************************************************

 Alpha  occ. eigenvalues --  -89.03326 -89.03120 -24.72238 -24.71830 -24.71704
 Alpha  occ. eigenvalues --  -24.71597 -24.71175 -24.70973 -24.69762 -24.69760
 Alpha  occ. eigenvalues --  -19.15584 -19.13413 -19.12330 -19.10327 -19.09638
 Alpha  occ. eigenvalues --  -19.09577 -19.09569 -19.09236 -14.38102 -14.33307
 Alpha  occ. eigenvalues --  -14.32344 -14.31707 -14.30695 -14.28597 -10.42910
 Alpha  occ. eigenvalues --  -10.42266 -10.28695 -10.27772 -10.27008 -10.26670
 Alpha  occ. eigenvalues --  -10.26251 -10.25907 -10.24951 -10.22513 -10.22319
 Alpha  occ. eigenvalues --  -10.22174 -10.21739 -10.21629 -10.21585 -10.21556
 Alpha  occ. eigenvalues --  -10.21481 -10.21307 -10.21152 -10.20920 -10.20873
 Alpha  occ. eigenvalues --  -10.20746 -10.20701 -10.20625 -10.20608 -10.20592
 Alpha  occ. eigenvalues --  -10.20532 -10.20212 -10.20131 -10.19966 -10.19814
 Alpha  occ. eigenvalues --  -10.19720 -10.19655 -10.19617 -10.19454 -10.19453
 Alpha  occ. eigenvalues --  -10.19444 -10.19398 -10.19369 -10.19340 -10.19236
 Alpha  occ. eigenvalues --  -10.19223 -10.19129 -10.18876 -10.18774 -10.18718
 Alpha  occ. eigenvalues --  -10.18710 -10.18666 -10.18660 -10.18554 -10.18538
 Alpha  occ. eigenvalues --  -10.18523 -10.18512 -10.18318 -10.18261 -10.18167
 Alpha  occ. eigenvalues --  -10.18151 -10.18121 -10.18075 -10.18036 -10.17987
 Alpha  occ. eigenvalues --  -10.17968 -10.17930 -10.17896 -10.17876 -10.17868
 Alpha  occ. eigenvalues --  -10.17842 -10.17735 -10.17638 -10.17543 -10.17465
 Alpha  occ. eigenvalues --  -10.17395 -10.17306 -10.17093 -10.17040 -10.16977
 Alpha  occ. eigenvalues --  -10.16952 -10.16919 -10.16842 -10.16778 -10.16732
 Alpha  occ. eigenvalues --  -10.16679 -10.16379 -10.16304 -10.16193 -10.15638
 Alpha  occ. eigenvalues --   -8.07880  -8.07652  -6.82854  -6.04188  -6.04116
 Alpha  occ. eigenvalues --   -6.04091  -6.03974  -6.03884  -6.03859  -4.85518
 Alpha  occ. eigenvalues --   -4.84026  -4.83981  -1.90256  -1.89832  -1.89796
 Alpha  occ. eigenvalues --   -1.88535  -1.88534  -1.32873  -1.32225  -1.24240
 Alpha  occ. eigenvalues --   -1.23854  -1.23769  -1.23477  -1.23194  -1.22820
 Alpha  occ. eigenvalues --   -1.11551  -1.09990  -1.08541  -1.05491  -1.04586
 Alpha  occ. eigenvalues --   -1.04012  -1.00617  -0.99154  -0.98990  -0.97800
 Alpha  occ. eigenvalues --   -0.94507  -0.93420  -0.92223  -0.90501  -0.89052
 Alpha  occ. eigenvalues --   -0.88775  -0.88319  -0.88166  -0.87496  -0.87466
 Alpha  occ. eigenvalues --   -0.84930  -0.84699  -0.84234  -0.83997  -0.83243
 Alpha  occ. eigenvalues --   -0.81943  -0.81751  -0.80173  -0.79980  -0.79466
 Alpha  occ. eigenvalues --   -0.79214  -0.78933  -0.78525  -0.78327  -0.78109
 Alpha  occ. eigenvalues --   -0.77740  -0.77571  -0.77138  -0.76920  -0.76662
 Alpha  occ. eigenvalues --   -0.76427  -0.75572  -0.74850  -0.74548  -0.74246
 Alpha  occ. eigenvalues --   -0.74078  -0.73741  -0.73017  -0.72688  -0.72513
 Alpha  occ. eigenvalues --   -0.72188  -0.71959  -0.71043  -0.70883  -0.70441
 Alpha  occ. eigenvalues --   -0.70368  -0.69266  -0.69099  -0.67873  -0.67840
 Alpha  occ. eigenvalues --   -0.66539  -0.66056  -0.65969  -0.65296  -0.64878
 Alpha  occ. eigenvalues --   -0.64436  -0.64261  -0.63999  -0.63697  -0.63431
 Alpha  occ. eigenvalues --   -0.63192  -0.62737  -0.62611  -0.62416  -0.62116
 Alpha  occ. eigenvalues --   -0.61701  -0.61588  -0.60725  -0.60585  -0.60456
 Alpha  occ. eigenvalues --   -0.60129  -0.59875  -0.59858  -0.59538  -0.59354
 Alpha  occ. eigenvalues --   -0.59259  -0.58509  -0.58423  -0.58319  -0.58099
 Alpha  occ. eigenvalues --   -0.57800  -0.57575  -0.57059  -0.56816  -0.55965
 Alpha  occ. eigenvalues --   -0.55124  -0.54828  -0.54742  -0.54255  -0.53645
 Alpha  occ. eigenvalues --   -0.53314  -0.52782  -0.52669  -0.52547  -0.52160
 Alpha  occ. eigenvalues --   -0.51686  -0.51559  -0.51314  -0.51253  -0.50671
 Alpha  occ. eigenvalues --   -0.50535  -0.50178  -0.49937  -0.49796  -0.49722
 Alpha  occ. eigenvalues --   -0.49657  -0.49035  -0.48950  -0.48889  -0.48803
 Alpha  occ. eigenvalues --   -0.48542  -0.48500  -0.48434  -0.48139  -0.47974
 Alpha  occ. eigenvalues --   -0.47821  -0.47775  -0.47741  -0.47665  -0.47495
 Alpha  occ. eigenvalues --   -0.47371  -0.47112  -0.47086  -0.46971  -0.46842
 Alpha  occ. eigenvalues --   -0.46598  -0.46271  -0.46063  -0.45875  -0.45792
 Alpha  occ. eigenvalues --   -0.45598  -0.45436  -0.45363  -0.45267  -0.45108
 Alpha  occ. eigenvalues --   -0.45070  -0.44986  -0.44898  -0.44739  -0.44648
 Alpha  occ. eigenvalues --   -0.44584  -0.44479  -0.44400  -0.44167  -0.44106
 Alpha  occ. eigenvalues --   -0.43897  -0.43677  -0.43357  -0.43277  -0.43134
 Alpha  occ. eigenvalues --   -0.43044  -0.43000  -0.42924  -0.42641  -0.42490
 Alpha  occ. eigenvalues --   -0.42406  -0.42316  -0.42194  -0.42178  -0.42054
 Alpha  occ. eigenvalues --   -0.41885  -0.41527  -0.41509  -0.41433  -0.41409
 Alpha  occ. eigenvalues --   -0.41208  -0.41066  -0.40839  -0.40806  -0.40612
 Alpha  occ. eigenvalues --   -0.40584  -0.40496  -0.40326  -0.40154  -0.40108
 Alpha  occ. eigenvalues --   -0.39741  -0.39607  -0.39519  -0.39416  -0.39284
 Alpha  occ. eigenvalues --   -0.39059  -0.38861  -0.38596  -0.38351  -0.37816
 Alpha  occ. eigenvalues --   -0.37702  -0.37642  -0.37463  -0.37309  -0.37271
 Alpha  occ. eigenvalues --   -0.37186  -0.37089  -0.36786  -0.36768  -0.36710
 Alpha  occ. eigenvalues --   -0.36560  -0.36396  -0.36373  -0.36316  -0.36132
 Alpha  occ. eigenvalues --   -0.36030  -0.36022  -0.35920  -0.35678  -0.35489
 Alpha  occ. eigenvalues --   -0.35446  -0.35301  -0.35014  -0.34943  -0.34681
 Alpha  occ. eigenvalues --   -0.34553  -0.34401  -0.34152  -0.33722  -0.33659
 Alpha  occ. eigenvalues --   -0.33582  -0.33291  -0.33234  -0.32694  -0.32630
 Alpha  occ. eigenvalues --   -0.32308  -0.32048  -0.31564  -0.31377  -0.31120
 Alpha  occ. eigenvalues --   -0.30662  -0.30361  -0.30050  -0.30001  -0.29869
 Alpha  occ. eigenvalues --   -0.28860  -0.28799  -0.28724  -0.28696  -0.28288
 Alpha  occ. eigenvalues --   -0.28104  -0.27986  -0.27893  -0.27739  -0.27537
 Alpha  occ. eigenvalues --   -0.27331  -0.27325  -0.26515  -0.26363  -0.26286
 Alpha  occ. eigenvalues --   -0.26073  -0.25791  -0.25596  -0.25449  -0.25204
 Alpha  occ. eigenvalues --   -0.25079  -0.24921  -0.24784  -0.24457  -0.24309
 Alpha  occ. eigenvalues --   -0.23963  -0.23532  -0.23362  -0.23117  -0.22662
 Alpha  occ. eigenvalues --   -0.22029  -0.21640  -0.20938
 Alpha virt. eigenvalues --   -0.10196  -0.07336  -0.06742  -0.05755  -0.05293
 Alpha virt. eigenvalues --   -0.04876  -0.04316  -0.03801  -0.03458  -0.02928
 Alpha virt. eigenvalues --   -0.02845  -0.02467  -0.02455  -0.02354  -0.01774
 Alpha virt. eigenvalues --   -0.01169  -0.00547  -0.00402   0.00170   0.00359
 Alpha virt. eigenvalues --    0.00429   0.00710   0.00958   0.01742   0.03371
 Alpha virt. eigenvalues --    0.03625   0.03658   0.04223   0.04337   0.04479
 Alpha virt. eigenvalues --    0.04600   0.05033   0.05218   0.05246   0.05626
 Alpha virt. eigenvalues --    0.05644   0.05949   0.06144   0.06202   0.06452
 Alpha virt. eigenvalues --    0.06633   0.06800   0.06870   0.07109   0.07167
 Alpha virt. eigenvalues --    0.07327   0.07514   0.07674   0.07711   0.07934
 Alpha virt. eigenvalues --    0.08009   0.08241   0.08405   0.08514   0.08651
 Alpha virt. eigenvalues --    0.08923   0.09015   0.09294   0.09315   0.09466
 Alpha virt. eigenvalues --    0.09590   0.09698   0.09734   0.09920   0.10099
 Alpha virt. eigenvalues --    0.10175   0.10261   0.10299   0.10358   0.10750
 Alpha virt. eigenvalues --    0.10766   0.10846   0.11029   0.11100   0.11264
 Alpha virt. eigenvalues --    0.11373   0.11576   0.11651   0.11728   0.11811
 Alpha virt. eigenvalues --    0.11943   0.12137   0.12219   0.12254   0.12338
 Alpha virt. eigenvalues --    0.12528   0.12569   0.12905   0.12950   0.12980
 Alpha virt. eigenvalues --    0.13074   0.13240   0.13308   0.13414   0.13539
 Alpha virt. eigenvalues --    0.13763   0.13857   0.13951   0.14012   0.14060
 Alpha virt. eigenvalues --    0.14175   0.14283   0.14366   0.14453   0.14573
 Alpha virt. eigenvalues --    0.14636   0.14747   0.14870   0.14877   0.15173
 Alpha virt. eigenvalues --    0.15334   0.15460   0.15601   0.15735   0.15820
 Alpha virt. eigenvalues --    0.15880   0.16075   0.16190   0.16293   0.16440
 Alpha virt. eigenvalues --    0.16543   0.16686   0.16971   0.17029   0.17055
 Alpha virt. eigenvalues --    0.17177   0.17300   0.17433   0.17475   0.17630
 Alpha virt. eigenvalues --    0.17888   0.17987   0.18073   0.18109   0.18215
 Alpha virt. eigenvalues --    0.18258   0.18507   0.18608   0.18693   0.18894
 Alpha virt. eigenvalues --    0.18920   0.19003   0.19139   0.19287   0.19395
 Alpha virt. eigenvalues --    0.19525   0.19584   0.19727   0.19826   0.19963
 Alpha virt. eigenvalues --    0.20066   0.20261   0.20321   0.20430   0.20535
 Alpha virt. eigenvalues --    0.20691   0.20842   0.20873   0.21012   0.21132
 Alpha virt. eigenvalues --    0.21148   0.21266   0.21366   0.21516   0.21591
 Alpha virt. eigenvalues --    0.21630   0.21845   0.21972   0.22097   0.22152
 Alpha virt. eigenvalues --    0.22246   0.22380   0.22547   0.22601   0.22709
 Alpha virt. eigenvalues --    0.22733   0.22833   0.22928   0.23193   0.23225
 Alpha virt. eigenvalues --    0.23336   0.23477   0.23566   0.23656   0.23781
 Alpha virt. eigenvalues --    0.23796   0.23966   0.24046   0.24105   0.24235
 Alpha virt. eigenvalues --    0.24321   0.24405   0.24474   0.24662   0.24854
 Alpha virt. eigenvalues --    0.24893   0.24971   0.25054   0.25211   0.25368
 Alpha virt. eigenvalues --    0.25457   0.25498   0.25648   0.25673   0.25748
 Alpha virt. eigenvalues --    0.25924   0.26058   0.26181   0.26292   0.26447
 Alpha virt. eigenvalues --    0.26474   0.26654   0.26727   0.26839   0.26959
 Alpha virt. eigenvalues --    0.27074   0.27250   0.27292   0.27349   0.27539
 Alpha virt. eigenvalues --    0.27705   0.27743   0.27920   0.27968   0.28078
 Alpha virt. eigenvalues --    0.28205   0.28276   0.28490   0.28515   0.28709
 Alpha virt. eigenvalues --    0.28795   0.28819   0.29029   0.29107   0.29211
 Alpha virt. eigenvalues --    0.29323   0.29549   0.29638   0.29651   0.29757
 Alpha virt. eigenvalues --    0.29894   0.29980   0.30049   0.30085   0.30244
 Alpha virt. eigenvalues --    0.30329   0.30332   0.30513   0.30696   0.30805
 Alpha virt. eigenvalues --    0.30823   0.31051   0.31153   0.31248   0.31319
 Alpha virt. eigenvalues --    0.31523   0.31596   0.31605   0.31726   0.31839
 Alpha virt. eigenvalues --    0.32016   0.32030   0.32127   0.32165   0.32329
 Alpha virt. eigenvalues --    0.32393   0.32468   0.32608   0.32639   0.32793
 Alpha virt. eigenvalues --    0.32910   0.33059   0.33250   0.33264   0.33365
 Alpha virt. eigenvalues --    0.33508   0.33647   0.33741   0.33805   0.33930
 Alpha virt. eigenvalues --    0.33952   0.34173   0.34193   0.34332   0.34413
 Alpha virt. eigenvalues --    0.34537   0.34638   0.34735   0.34799   0.34986
 Alpha virt. eigenvalues --    0.35182   0.35217   0.35328   0.35434   0.35643
 Alpha virt. eigenvalues --    0.35723   0.35835   0.35875   0.35904   0.36174
 Alpha virt. eigenvalues --    0.36325   0.36414   0.36503   0.36731   0.36742
 Alpha virt. eigenvalues --    0.36834   0.36921   0.37081   0.37182   0.37242
 Alpha virt. eigenvalues --    0.37384   0.37501   0.37524   0.37801   0.37826
 Alpha virt. eigenvalues --    0.37902   0.38041   0.38154   0.38216   0.38256
 Alpha virt. eigenvalues --    0.38346   0.38461   0.38555   0.38572   0.38718
 Alpha virt. eigenvalues --    0.38826   0.38869   0.39124   0.39140   0.39315
 Alpha virt. eigenvalues --    0.39375   0.39445   0.39551   0.39647   0.39712
 Alpha virt. eigenvalues --    0.39810   0.39950   0.40077   0.40138   0.40159
 Alpha virt. eigenvalues --    0.40306   0.40409   0.40567   0.40629   0.40782
 Alpha virt. eigenvalues --    0.40846   0.40916   0.41061   0.41114   0.41297
 Alpha virt. eigenvalues --    0.41330   0.41376   0.41499   0.41711   0.41792
 Alpha virt. eigenvalues --    0.41808   0.41871   0.42014   0.42060   0.42185
 Alpha virt. eigenvalues --    0.42406   0.42520   0.42586   0.42630   0.42667
 Alpha virt. eigenvalues --    0.42836   0.42866   0.42972   0.43100   0.43191
 Alpha virt. eigenvalues --    0.43212   0.43339   0.43450   0.43619   0.43698
 Alpha virt. eigenvalues --    0.43795   0.43874   0.43909   0.43998   0.44126
 Alpha virt. eigenvalues --    0.44170   0.44335   0.44397   0.44593   0.44655
 Alpha virt. eigenvalues --    0.44857   0.44950   0.45011   0.45059   0.45214
 Alpha virt. eigenvalues --    0.45285   0.45376   0.45509   0.45546   0.45716
 Alpha virt. eigenvalues --    0.45827   0.45904   0.45947   0.46034   0.46120
 Alpha virt. eigenvalues --    0.46260   0.46303   0.46351   0.46498   0.46623
 Alpha virt. eigenvalues --    0.46653   0.46672   0.46832   0.47072   0.47165
 Alpha virt. eigenvalues --    0.47266   0.47442   0.47470   0.47692   0.47749
 Alpha virt. eigenvalues --    0.47823   0.47863   0.47957   0.48174   0.48235
 Alpha virt. eigenvalues --    0.48303   0.48530   0.48717   0.48871   0.48895
 Alpha virt. eigenvalues --    0.49031   0.49042   0.49129   0.49188   0.49271
 Alpha virt. eigenvalues --    0.49370   0.49383   0.49541   0.49702   0.49818
 Alpha virt. eigenvalues --    0.50101   0.50143   0.50256   0.50344   0.50554
 Alpha virt. eigenvalues --    0.50578   0.50621   0.50726   0.50846   0.50989
 Alpha virt. eigenvalues --    0.51040   0.51098   0.51181   0.51360   0.51464
 Alpha virt. eigenvalues --    0.51516   0.51585   0.51712   0.51849   0.51932
 Alpha virt. eigenvalues --    0.52002   0.52280   0.52440   0.52584   0.52655
[...]
 Alpha virt. eigenvalues --    6.07998   6.09122   6.10710   6.11250   6.11846
 Alpha virt. eigenvalues --    6.12603   6.12882   6.14460   6.14905   6.17577
 Alpha virt. eigenvalues --    6.17808   6.18308   6.18831   6.20304   6.22519
 Alpha virt. eigenvalues --    6.22824   6.23211   6.23931   6.24613   6.24768
 Alpha virt. eigenvalues --    6.26029   6.27034   6.31109   6.36562   6.36783
 Alpha virt. eigenvalues --    6.41330   6.43411   6.45278   6.46191   6.47008
 Alpha virt. eigenvalues --    6.47676   6.48319   6.49145   6.49490   6.50935
 Alpha virt. eigenvalues --    6.53226   6.55379   6.56482   6.56638   6.58199
 Alpha virt. eigenvalues --    6.59281   6.60765   6.61015   6.62191   6.63264
 Alpha virt. eigenvalues --    6.66646   6.68116   6.69544   6.70564   6.71049
 Alpha virt. eigenvalues --    6.77586   6.78348   6.78757   6.78801   6.79030
 Alpha virt. eigenvalues --    6.79413   6.80053   6.81241   6.81767   6.82237
 Alpha virt. eigenvalues --    6.82739   6.82830   6.83464   6.83551   6.83727
 Alpha virt. eigenvalues --    6.84258   6.84501   6.84768   6.85058   6.85339
 Alpha virt. eigenvalues --    6.85360   6.85643   6.86127   6.86331   6.86613
 Alpha virt. eigenvalues --    6.87035   6.87436   6.87509   6.87997   6.88117
 Alpha virt. eigenvalues --    6.88321   6.89579   6.90652   6.90972   6.93151
 Alpha virt. eigenvalues --    6.94791   6.95723   6.96603   6.97380   6.97643
 Alpha virt. eigenvalues --    6.97701   6.98277   6.98345   6.98619   6.98709
 Alpha virt. eigenvalues --    6.99928   7.01233   7.01630   7.02788   7.05117
 Alpha virt. eigenvalues --    7.05350   7.05631   7.06354   7.06916   7.09017
 Alpha virt. eigenvalues --    7.09335   7.10365   7.11411   7.12363   7.12863
 Alpha virt. eigenvalues --    7.13018   7.13707   7.14194   7.15164   7.19406
 Alpha virt. eigenvalues --    7.21579   7.23857   7.26279   7.27300   7.28790
 Alpha virt. eigenvalues --    7.36104   7.36706   7.37406   7.37634   7.37873
 Alpha virt. eigenvalues --    7.38348   7.42048   7.43167   7.43565   7.45615
 Alpha virt. eigenvalues --    7.46982   7.47700   7.48341   7.49088   7.57389
 Alpha virt. eigenvalues --    7.58232   7.58294   7.58916   7.59534   7.62291
 Alpha virt. eigenvalues --    7.62935   7.63557   7.65609   7.66535   7.91519
 Alpha virt. eigenvalues --    7.93606   8.00931   8.07538   8.28834   8.28871
 Alpha virt. eigenvalues --    8.30633   8.31462   8.31958   8.32642   8.41067
 Alpha virt. eigenvalues --    8.45080   8.45722   8.45841   8.50051   8.50505
 Alpha virt. eigenvalues --    8.58017   8.58481   8.58614   8.65367   8.68163
 Alpha virt. eigenvalues --    8.68412   8.75944   8.76219   8.78667   8.78683
 Alpha virt. eigenvalues --    8.79062   8.82298   8.91084   8.91341   8.96140
 Alpha virt. eigenvalues --    8.96328   9.00702   9.02334   9.03632   9.05018
 Alpha virt. eigenvalues --    9.11260   9.11827   9.11924   9.17181   9.18993
 Alpha virt. eigenvalues --    9.19512   9.22424   9.26660   9.56570   9.60340
 Alpha virt. eigenvalues --    9.79086   9.86912  10.16900  10.18397  22.57617
 Alpha virt. eigenvalues --   22.67039  22.67984  22.72073  22.77243  22.79801
 Alpha virt. eigenvalues --   22.87979  22.89191  22.89721  22.94232  22.94845
 Alpha virt. eigenvalues --   22.96092  22.98456  23.00841  23.03409  23.04681
 Alpha virt. eigenvalues --   23.05799  23.06393  23.07312  23.08053  23.08868
 Alpha virt. eigenvalues --   23.09290  23.09885  23.10415  23.10886  23.11370
 Alpha virt. eigenvalues --   23.13606  23.13907  23.14436  23.17283  23.17554
 Alpha virt. eigenvalues --   23.17968  23.18269  23.18914  23.20278  23.21258
 Alpha virt. eigenvalues --   23.21769  23.22294  23.22612  23.22896  23.23450
 Alpha virt. eigenvalues --   23.23879  23.24898  23.26584  23.27100  23.27728
 Alpha virt. eigenvalues --   23.29593  23.30032  23.31123  23.31343  23.32384
 Alpha virt. eigenvalues --   23.33428  23.33628  23.34230  23.34493  23.35569
 Alpha virt. eigenvalues --   23.36342  23.37679  23.39611  23.42139  23.44857
 Alpha virt. eigenvalues --   23.44884  23.45353  23.46543  23.46688  23.48610
 Alpha virt. eigenvalues --   23.49612  23.55645  23.56218  23.57464  23.59916
 Alpha virt. eigenvalues --   23.60892  23.60996  23.62111  23.78908  23.79701
 Alpha virt. eigenvalues --   23.81055  23.86620  23.92149  23.92880  24.10722
 Alpha virt. eigenvalues --   24.13374  24.14385  24.16524  24.22680  24.28913
 Alpha virt. eigenvalues --   24.41424  24.44664  32.59852  32.63897  32.85857
 Alpha virt. eigenvalues --   32.98455  33.25703  33.26599  34.74482  34.79133
 Alpha virt. eigenvalues --   35.08702  43.28149  44.01812  44.05585  44.14807
 Alpha virt. eigenvalues --   44.25639  44.33144  44.34488  44.36278  44.40244
 Alpha virt. eigenvalues --   57.15782  57.20056  57.30370  57.41163  57.52210
 Alpha virt. eigenvalues --   57.53254  57.61796  57.72000 117.95817
          Condensed to atoms (all electrons):
 Mulliken charges:
               1
     1  C    0.271269
     2  C   -0.179976
     3  C    0.222776
     4  C   -0.265969
     5  C    0.287709
     6  N   -0.298660
     7  H    0.161048
     8  C   -0.018388
     9  C    0.058015
    10  C   -0.194293
    11  C   -0.213854
    12  C   -0.094776
    13  H    0.142191
    14  H    0.158134
    15  H    0.172943
    16  C    0.323374
    17  C    0.095855
    18  C   -0.201631
    19  C   -0.179271
    20  C   -0.185477
    21  H    0.173608
    22  C   -0.181840
    23  H    0.142417
    24  C   -0.143722
    25  H    0.148075
    26  H    0.144185
    27  H    0.149753
    28  F   -0.247858
    29  C   -0.293236
    30  H    0.107769
    31  H    0.122851
    32  H    0.142798
    33  C   -0.023358
    34  C   -0.061190
    35  C    0.005528
    36  H    0.100589
    37  H    0.114755
    38  C   -0.016192
    39  H    0.108020
    40  H    0.102977
    41  H    0.099262
    42  H    0.095478
    43  H    0.106566
    44  H    0.092800
    45  N   -0.000492
    46  O   -0.340160
    47  I   -0.039299
    48  H    0.133495
    49  C   -0.142637
    50  C   -0.180637
    51  C   -0.032921
    52  C   -0.064169
    53  C   -0.148916
    54  C   -0.134532
    55  H    0.154662
    56  H    0.163069
    57  C    0.085725
    58  C   -0.105940
    59  H    0.146506
    60  H    0.153759
    61  C   -0.086878
    62  C   -0.060223
    63  H    0.141825
    64  C    0.105213
    65  C   -0.085424
    66  C   -0.059723
    67  C   -0.099653
    68  C   -0.035463
    69  C   -0.178888
    70  C   -0.112510
    71  C   -0.140322
    72  C   -0.143749
    73  H    0.160239
    74  H    0.144749
    75  C   -0.134721
    76  H    0.146215
    77  H    0.153770
    78  H    0.152958
    79  S    0.910970
    80  O   -0.532442
    81  O   -0.557379
    82  S    1.005858
    83  O   -0.573165
    84  O   -0.600110
    85  N   -0.477262
    86  C    0.189271
    87  C    0.086331
    88  C    0.152631
    89  C    0.183952
    90  C    0.000112
    91  C   -0.227216
    92  C   -0.269009
    93  C   -0.073378
    94  C   -0.107464
    95  H    0.159205
    96  C   -0.177790
    97  H    0.157899
    98  H    0.159968
    99  H    0.158568
   100  C   -0.047676
   101  C   -0.220663
   102  C   -0.275899
   103  C   -0.072554
   104  C   -0.103362
   105  H    0.179099
   106  C   -0.161514
   107  H    0.159394
   108  H    0.158830
   109  H    0.160764
   110  C    0.614139
   111  F   -0.200069
   112  F   -0.192122
   113  F   -0.191087
   114  C    0.566893
   115  F   -0.180284
   116  F   -0.191569
   117  F   -0.188722
   118  N   -0.390284
   119  C    0.329862
   120  C   -0.114299
   121  C   -0.100721
   122  C    0.242453
   123  O   -0.358233
   124  O   -0.350845
   125  H    0.109030
   126  H    0.099839
   127  H    0.089774
   128  H    0.097509
   129  C    0.223636
   130  C   -0.232937
   131  C   -0.006953
   132  C   -0.096271
   133  C    0.145090
   134  N   -0.328711
   135  H    0.121043
   136  C   -0.106996
   137  C    0.179345
   138  C   -0.169842
   139  C   -0.253378
   140  C   -0.139444
   141  H    0.148598
   142  H    0.157266
   143  H    0.144889
   144  C    0.361274
   145  C   -0.035248
   146  C   -0.168695
   147  C   -0.192865
   148  C   -0.163272
   149  H    0.143514
   150  C   -0.187681
   151  H    0.179574
   152  C   -0.112230
   153  H    0.125566
   154  H    0.143042
   155  H    0.150002
   156  F   -0.219880
   157  C   -0.305358
   158  H    0.102490
   159  H    0.110889
   160  H    0.110485
   161  C   -0.047276
   162  C   -0.041606
   163  C    0.032727
   164  H    0.082492
   165  H    0.066692
   166  C    0.010940
   167  H    0.086997
   168  H    0.082317
   169  H    0.043362
   170  H    0.095526
   171  H    0.097793
   172  H    0.094886
   173  N   -0.108585
   174  O   -0.372502
   175  H    0.136775
   176  H    0.309307
 Sum of Mulliken charges =   0.00000
 Mulliken charges with hydrogens summed into heavy atoms:
               1
     1  C    0.271269
     2  C   -0.046481
     3  C    0.222776
     4  C   -0.104920
     5  C    0.287709
     6  N   -0.298660
     8  C   -0.018388
     9  C    0.058015
    10  C   -0.052102
    11  C   -0.040911
    12  C    0.063357
    16  C    0.323374
    17  C    0.095855
    18  C   -0.028023
    19  C   -0.036854
    20  C   -0.037401
    22  C   -0.037655
    24  C    0.006031
    28  F   -0.247858
    29  C    0.080182
    33  C    0.191986
    34  C    0.149806
    35  C    0.200268
    38  C    0.183175
    45  N   -0.000492
    46  O   -0.340160
    47  I   -0.039299
    49  C    0.012025
    50  C   -0.017568
    51  C   -0.032921
    52  C   -0.064169
    53  C   -0.002410
    54  C    0.019227
    57  C    0.085725
    58  C    0.035885
    61  C   -0.086878
    62  C   -0.060223
    64  C    0.105213
    65  C   -0.085424
    66  C   -0.059723
    67  C   -0.099653
    68  C   -0.035463
    69  C   -0.018649
    70  C    0.032239
    71  C    0.005893
    72  C    0.010021
    75  C    0.018236
    79  S    0.910970
    80  O   -0.532442
    81  O   -0.557379
    82  S    1.005858
    83  O   -0.573165
    84  O   -0.600110
    85  N   -0.477262
    86  C    0.189271
    87  C    0.086331
    88  C    0.152631
    89  C    0.183952
    90  C    0.000112
    91  C   -0.227216
    92  C   -0.109804
    93  C    0.084521
    94  C    0.052504
    96  C   -0.019222
   100  C   -0.047676
   101  C   -0.220663
   102  C   -0.096800
   103  C    0.086840
   104  C    0.055468
   106  C   -0.000751
   110  C    0.614139
   111  F   -0.200069
   112  F   -0.192122
   113  F   -0.191087
   114  C    0.566893
   115  F   -0.180284
   116  F   -0.191569
   117  F   -0.188722
   118  N   -0.390284
   119  C    0.329862
   120  C    0.094570
   121  C    0.086563
   122  C    0.242453
   123  O   -0.358233
   124  O   -0.041539
   129  C    0.223636
   130  C   -0.096162
   131  C   -0.006953
   132  C    0.024772
   133  C    0.145090
   134  N   -0.328711
   136  C   -0.106996
   137  C    0.179345
   138  C   -0.021244
   139  C   -0.108489
   140  C    0.017822
   144  C    0.361274
   145  C   -0.035248
   146  C   -0.025181
   147  C   -0.013291
   148  C   -0.037706
   150  C   -0.044639
   152  C    0.037773
   156  F   -0.219880
   157  C    0.018505
   161  C    0.101908
   162  C    0.127708
   163  C    0.171614
   166  C    0.203620
   173  N   -0.108585
   174  O   -0.372502
 Electronic spatial extent (au):  <R**2>=         102513.2835
 Charge=              0.0000 electrons
 Dipole moment (field-independent basis, Debye):
    X=             -5.5095    Y=             -1.9905    Z=             -0.8131  Tot=              5.9142
 Quadrupole moment (field-independent basis, Debye-Ang):
   XX=           -644.9660   YY=           -593.4734   ZZ=           -634.0057
   XY=             -9.1120   XZ=             10.3593   YZ=             -4.4620
 Traceless Quadrupole moment (field-independent basis, Debye-Ang):
   XX=            -20.8176   YY=             30.6750   ZZ=             -9.8573
   XY=             -9.1120   XZ=             10.3593   YZ=             -4.4620
 Octapole moment (field-independent basis, Debye-Ang**2):
  XXX=           -370.5362  YYY=           -665.4176  ZZZ=           -149.1625  XYY=           -106.3669
  XXY=           -142.7564  XXZ=             84.3050  XZZ=            -19.7033  YZZ=            151.9044
  YYZ=             99.5406  XYZ=            194.2579
 Hexadecapole moment (field-independent basis, Debye-Ang**3):
 XXXX=         -61728.2262 YYYY=         -43094.9841 ZZZZ=         -26988.6017 XXXY=           1584.9962
 XXXZ=          -1550.6488 YYYX=           -337.7055 YYYZ=           1191.2914 ZZZX=          -1854.7083
 ZZZY=           1526.3017 XXYY=         -15789.8838 XXZZ=         -15377.1682 YYZZ=         -11783.8615
 XXYZ=            235.7061 YYXZ=            -84.5001 ZZXY=           -857.2290
 N-N= 2.817564057811D+04 E-N=-7.067350046360D+04  KE= 5.931200167846D+03
 Leave Link  601 at Thu Nov 14 01:54:50 2024, MaxMem=  7247757312 cpu:              86.5 elap:               3.0
 (Enter /opt/packages/gaussian/g16RevC.01/g16/l9999.exe)
 Unable to Open any file for archive entry.
 1\1\GINC-R042\SP\RB3LYP\def2TZVPP\C86H65F8I1N6O8S2\BIM2\14-Nov-2024\0\
 \#p b3lyp def2tzvpp scf=maxcycle=128 nosymm scrf=(smd,solvent=propylet
 hanoate) empiricaldispersion=gd3bj guess=read\\Title Card Required\\0,
 1\C,0,0.681313,-1.233817,-1.690339\C,0,-0.449075,-0.786039,-0.826414\C
 ,0,-1.012013,0.537165,-1.182858\C,0,-0.765521,1.060909,-2.402983\C,0,0
 .157243,0.381021,-3.273095\N,0,0.885302,-0.695904,-2.853116\H,0,-1.161
 819,2.041422,-2.656503\C,0,1.579709,-2.361364,-1.304458\C,0,2.793434,-
 2.646408,-1.996269\C,0,3.469708,-3.846689,-1.749534\C,0,1.907463,-4.45
 3209,-0.03495\C,0,3.020754,-4.762096,-0.802412\H,0,4.399877,-4.036852,
 -2.286177\H,0,3.567279,-5.690663,-0.627195\H,0,1.545672,-5.101434,0.76
 3768\C,0,1.237824,-3.265122,-0.282563\C,0,3.513561,-1.686924,-2.880801
 \C,0,3.843706,-0.411872,-2.398374\C,0,4.001168,-2.090178,-4.128502\C,0
 ,4.630938,0.447045,-3.158375\H,0,3.476834,-0.094058,-1.420085\C,0,4.79
 1289,-1.226518,-4.89183\H,0,3.754215,-3.083902,-4.508723\C,0,5.10923,0
 .041423,-4.408854\H,0,4.864816,1.435418,-2.758507\H,0,5.160526,-1.5516
 39,-5.866486\H,0,5.729689,0.715292,-5.002956\F,0,0.201081,-3.013145,0.
 515998\C,0,-1.840512,1.250434,-0.169786\H,0,-2.194497,2.215788,-0.5539
 26\H,0,-2.712164,0.63929,0.121886\H,0,-1.230242,1.417691,0.734359\C,0,
 1.524859,0.344669,-5.315493\C,0,-0.368555,1.852305,-5.180188\C,0,2.378
 703,1.560562,-5.669149\H,0,1.130594,-0.120439,-6.23239\H,0,2.105464,-0
 .38839,-4.748468\C,0,0.568585,3.004381,-5.522983\H,0,-0.764961,1.41872
 1,-6.111863\H,0,-1.213045,2.185211,-4.570983\H,0,3.190106,1.256068,-6.
 342889\H,0,2.821384,1.968948,-4.742097\H,0,0.024009,3.773745,-6.087847
 \H,0,0.953991,3.446854,-4.583942\N,0,0.390238,0.800814,-4.508126\O,0,1
 .62503,2.550703,-6.328132\I,0,-2.170955,-2.151748,-1.066402\H,0,-0.241
 39,-0.891527,0.241037\C,0,2.215048,4.857749,5.288653\C,0,2.670028,4.16
 7399,4.190528\C,0,2.025058,4.301932,2.928265\C,0,0.87995,5.143749,2.84
 2684\C,0,0.436075,5.853114,3.993939\C,0,1.092448,5.717309,5.191164\H,0
 ,2.720986,4.738294,6.247949\H,0,3.527857,3.502796,4.290873\C,0,2.45727
 8,3.596069,1.756011\C,0,0.171942,5.230163,1.622806\H,0,-0.440291,6.497
 859,3.903148\H,0,0.747753,6.260195,6.072593\C,0,0.566332,4.518935,0.50
 3045\C,0,1.74459,3.711415,0.575226\H,0,-0.724274,5.850906,1.571618\C,0
 ,3.630323,2.668362,1.888126\C,0,3.469539,1.295813,1.809909\C,0,4.93569
 2,3.225212,2.081675\C,0,4.580403,0.407786,1.970948\C,0,6.043863,2.3454
 69,2.237963\C,0,5.17469,4.628176,2.090935\C,0,5.835288,0.947725,2.1885
 71\C,0,7.347284,2.884231,2.428421\C,0,6.445263,5.12077,2.269001\H,0,4.
 342003,5.316573,1.943622\H,0,6.68799,0.277726,2.3104\C,0,7.543501,4.24
 2248,2.447329\H,0,8.184103,2.193906,2.551103\H,0,6.612179,6.199013,2.2
 67637\H,0,8.545248,4.650528,2.589932\S,0,2.203497,2.602437,-0.753735\O
 ,0,3.628915,2.682651,-0.887455\O,0,1.449109,2.916508,-1.929244\S,0,1.8
 71542,0.693392,1.281224\O,0,0.887946,1.274523,2.158061\O,0,1.896727,-0
 .740035,1.26078\N,0,1.7261,1.194185,-0.20888\C,0,-0.304514,4.621605,-0
 .633433\C,0,-1.186362,4.802186,-1.448116\C,0,4.505982,-1.027645,1.9326
 12\C,0,4.629394,-2.235403,1.931499\C,0,4.837494,-3.652758,1.862594\C,0
 ,5.859778,-4.18097,1.045958\C,0,4.032499,-4.541244,2.591078\C,0,6.0670
 92,-5.554773,0.968483\C,0,4.245638,-5.91555,2.508972\H,0,3.227754,-4.1
 52351,3.215847\C,0,5.260424,-6.425928,1.701541\H,0,6.861239,-5.945225,
 0.3319\H,0,3.609087,-6.590476,3.083579\H,0,5.428215,-7.501893,1.639327
 \C,0,-2.272765,4.985374,-2.362791\C,0,-3.555199,5.349225,-1.90064\C,0,
 -2.083515,4.803494,-3.740736\C,0,-4.60765,5.525173,-2.794013\C,0,-3.14
 1947,4.97072,-4.63067\H,0,-1.086996,4.545207,-4.098807\C,0,-4.403924,5
 .332075,-4.16093\H,0,-5.591877,5.808904,-2.420369\H,0,-2.97685,4.82505
 9,-5.699672\H,0,-5.232926,5.466682,-4.85648\C,0,-3.778445,5.554366,-0.
 424137\F,0,-3.434098,4.476571,0.291323\F,0,-5.05983,5.808504,-0.145897
 \F,0,-3.063625,6.577846,0.054863\C,0,6.727845,-3.245945,0.24037\F,0,6.
 015974,-2.494859,-0.603352\F,0,7.622822,-3.913145,-0.493712\F,0,7.4170
 25,-2.405892,1.021836\N,0,-4.5008,-3.652838,-0.728851\C,0,-4.54481,-4.
 441391,0.305073\C,0,-5.289117,-5.73801,0.099856\C,0,-5.872822,-5.54486
 7,-1.294222\C,0,-5.240272,-4.233512,-1.765051\O,0,-5.357502,-3.747399,
 -2.861702\O,0,-4.004692,-4.203762,1.448751\H,0,-4.57211,-6.569787,0.16
 7208\H,0,-6.028968,-5.871318,0.900514\H,0,-6.964652,-5.414204,-1.28712
 1\H,0,-5.63641,-6.345139,-2.007023\C,0,-4.508315,-0.93882,2.043989\C,0
 ,-4.434231,0.405932,2.366446\C,0,-3.229377,0.92084,2.87153\C,0,-2.1810
 1,0.044112,3.085129\C,0,-2.337223,-1.335013,2.800509\N,0,-3.481886,-1.
 790979,2.256915\H,0,-1.243395,0.430008,3.476555\C,0,-5.748467,-1.52973
 1,1.45042\C,0,-6.306553,-1.140794,0.21209\C,0,-7.401635,-1.852808,-0.2
 98361\C,0,-7.443538,-3.294437,1.635495\C,0,-7.963513,-2.919073,0.39858
 1\H,0,-7.809935,-1.559406,-1.266802\H,0,-8.819246,-3.453853,-0.016926\
 H,0,-7.86222,-4.110408,2.225807\C,0,-6.354505,-2.593206,2.128581\C,0,-
 5.744269,-0.045794,-0.639681\C,0,-5.92189,1.308605,-0.325651\C,0,-5.08
 9192,-0.381762,-1.831093\C,0,-5.407834,2.303292,-1.156424\H,0,-6.49130
 9,1.588102,0.562144\C,0,-4.557149,0.614146,-2.652023\H,0,-4.994202,-1.
 433552,-2.111007\C,0,-4.704469,1.958526,-2.312704\H,0,-5.569914,3.3516
 07,-0.900554\H,0,-4.027474,0.331146,-3.564239\H,0,-4.288872,2.738796,-
 2.955913\F,0,-5.851215,-2.961186,3.311446\C,0,-3.08827,2.388043,3.1507
 8\H,0,-2.076081,2.636968,3.494884\H,0,-3.299216,2.965585,2.238549\H,0,
 -3.812772,2.709027,3.914384\C,0,-1.638065,-3.567182,3.547367\C,0,-0.08
 6377,-1.710145,3.644643\C,0,-0.441115,-4.487825,3.382579\H,0,-2.490935
 ,-3.989093,3.010908\H,0,-1.901555,-3.510388,4.622003\C,0,1.044451,-2.7
 17615,3.526744\H,0,0.231509,-0.807069,3.112266\H,0,-0.251904,-1.455394
 ,4.710861\H,0,-0.232218,-4.617108,2.305091\H,0,-0.669854,-5.469286,3.8
 19727\H,0,1.346524,-2.802316,2.470191\H,0,1.90661,-2.350613,4.101573\N
 ,0,-1.318394,-2.227636,3.056581\O,0,0.693985,-3.982723,4.045033\H,0,-5
 .297199,1.052355,2.227155\H,0,-3.716628,-3.205804,1.663532\\Version=ES
 64L-G16RevC.01\HF=-6142.0090879\RMSD=2.096e-09\Dipole=-2.1675942,-0.78
 31143,-0.3199153\Quadrupole=-15.4774026,22.8060955,-7.3286929,-6.77453
 37,7.7019079,-3.3173679\PG=C01 [X(C86H65F8I1N6O8S2)]\\@
 The archive entry for this job was punched.


 I WANT TO KNOW HOW GOD CREATED THE WORLD.  I AM NOT INTERESTED IN
 THIS OR THAT PHENOMENON, IN THE SPECTRUM OF THIS OR THAT ELEMENT.
 I WANT TO KNOW HIS THOUGHTS, THE REST ARE DETAILS.
     -- ALBERT EINSTEIN
 Job cpu time:       4 days 13 hours 34 minutes 10.4 seconds.
 Elapsed time:       0 days  2 hours 18 minutes 29.2 seconds.
 File lengths (MBytes):  RWF=  12509 Int=      0 D2E=      0 Chk=   1344 Scr=      1
 Normal termination of Gaussian 16 at Thu Nov 14 01:54:52 2024.
