 Entering Gaussian System, Link 0=g16
 Initial command:
 /ihome/crc/install/gaussian/c01/avx2/tar/g16/l1.exe "/scratch/slurm-18067611/Gau-36110.inp" -scrdir="/scratch/slurm-18067611/"
 Entering Link 1 = /ihome/crc/install/gaussian/c01/avx2/tar/g16/l1.exe PID=     36111.
  
 Copyright (c) 1988-2019, Gaussian, Inc.  All Rights Reserved.
  
 This is part of the Gaussian(R) 16 program.  It is based on
 the Gaussian(R) 09 system (copyright 2009, Gaussian, Inc.),
 the Gaussian(R) 03 system (copyright 2003, Gaussian, Inc.),
 the Gaussian(R) 98 system (copyright 1998, Gaussian, Inc.),
 the Gaussian(R) 94 system (copyright 1995, Gaussian, Inc.),
 the Gaussian 92(TM) system (copyright 1992, Gaussian, Inc.),
 the Gaussian 90(TM) system (copyright 1990, Gaussian, Inc.),
 the Gaussian 88(TM) system (copyright 1988, Gaussian, Inc.),
 the Gaussian 86(TM) system (copyright 1986, Carnegie Mellon
 University), and the Gaussian 82(TM) system (copyright 1983,
 Carnegie Mellon University). Gaussian is a federally registered
 trademark of Gaussian, Inc.
  
 This software contains proprietary and confidential information,
 including trade secrets, belonging to Gaussian, Inc.
  
 This software is provided under written license and may be
 used, copied, transmitted, or stored only in accord with that
 written license.
  
 The following legend is applicable only to US Government
 contracts under FAR:
  
                    RESTRICTED RIGHTS LEGEND
  
 Use, reproduction and disclosure by the US Government is
 subject to restrictions as set forth in subparagraphs (a)
 and (c) of the Commercial Computer Software - Restricted
 Rights clause in FAR 52.227-19.
  
 Gaussian, Inc.
 340 Quinnipiac St., Bldg. 40, Wallingford CT 06492
  
  
 ---------------------------------------------------------------
 Warning -- This program may not be used in any manner that
 competes with the business of Gaussian, Inc. or will provide
 assistance to any competitor of Gaussian, Inc.  The licensee
 of this program is prohibited from giving any competitor of
 Gaussian, Inc. access to this program.  By using this program,
 the user acknowledges that Gaussian, Inc. is engaged in the
 business of creating and licensing software in the field of
 computational chemistry and represents and warrants to the
 licensee that it is not a competitor of Gaussian, Inc. and that
 it will not use this program in any manner prohibited above.
 ---------------------------------------------------------------
  

 Cite this work as:
 Gaussian 16, Revision C.01,
 M. J. Frisch, G. W. Trucks, H. B. Schlegel, G. E. Scuseria, 
 M. A. Robb, J. R. Cheeseman, G. Scalmani, V. Barone, 
 G. A. Petersson, H. Nakatsuji, X. Li, M. Caricato, A. V. Marenich, 
 J. Bloino, B. G. Janesko, R. Gomperts, B. Mennucci, H. P. Hratchian, 
 J. V. Ortiz, A. F. Izmaylov, J. L. Sonnenberg, D. Williams-Young, 
 F. Ding, F. Lipparini, F. Egidi, J. Goings, B. Peng, A. Petrone, 
 T. Henderson, D. Ranasinghe, V. G. Zakrzewski, J. Gao, N. Rega, 
 G. Zheng, W. Liang, M. Hada, M. Ehara, K. Toyota, R. Fukuda, 
 J. Hasegawa, M. Ishida, T. Nakajima, Y. Honda, O. Kitao, H. Nakai, 
 T. Vreven, K. Throssell, J. A. Montgomery, Jr., J. E. Peralta, 
 F. Ogliaro, M. J. Bearpark, J. J. Heyd, E. N. Brothers, K. N. Kudin, 
 V. N. Staroverov, T. A. Keith, R. Kobayashi, J. Normand, 
 K. Raghavachari, A. P. Rendell, J. C. Burant, S. S. Iyengar, 
 J. Tomasi, M. Cossi, J. M. Millam, M. Klene, C. Adamo, R. Cammi, 
 J. W. Ochterski, R. L. Martin, K. Morokuma, O. Farkas, 
 J. B. Foresman, and D. J. Fox, Gaussian, Inc., Wallingford CT, 2019.
 
 ******************************************
 Gaussian 16:  ES64L-G16RevC.01  3-Jul-2019
                18-Feb-2025 
 ******************************************
 %nprocshared=24
 Will use up to   24 processors via shared memory.
 %mem=36GB
 ----------------------------------------------------------------------
 #p b3lyp def2tzvpp scf=maxcycle=128 nosymm scrf=(smd,solvent=propyleth
 anoate) empiricaldispersion=gd3bj
 ----------------------------------------------------------------------
 1/38=1,172=1/1;
 2/12=2,15=1,17=6,18=5,40=1/2;
 3/5=44,7=202,11=2,25=1,30=1,70=32201,72=169,74=-5,124=41/1,2,3;
 4//1;
 5/5=2,7=128,38=5,53=169/2;
 6/7=2,8=2,9=2,10=2,28=1/1;
 99/5=1,9=1/99;
 Leave Link    1 at Tue Feb 18 07:33:47 2025, MaxMem=  4831838208 cpu:               0.3 elap:               0.0
 (Enter /ihome/crc/install/gaussian/c01/avx2/tar/g16/l101.exe)
 -----------------------------
 alkyneCF3_R-ax-R_01_iodi_INT4
 -----------------------------
 Symbolic Z-matrix:
 Charge =  0 Multiplicity = 1
 C                     0.36982  -3.62457   0.05838 
 C                     1.81485  -3.90431   0.20605 
 C                     2.63263  -2.67241   0.30291 
 C                     2.03681  -1.52169   0.68339 
 C                     0.6249   -1.56578   1.02544 
 N                    -0.1784   -2.556     0.51715 
 H                     2.5929   -0.5876    0.72974 
 C                    -0.496    -4.60951  -0.63701 
 C                    -0.28282  -4.95045  -1.9891 
 C                    -1.12331  -5.90253  -2.58162 
 C                    -2.38671  -6.14523  -0.5301 
 C                    -2.16099  -6.48969  -1.8612 
 H                    -0.97694  -6.15709  -3.63252 
 H                    -2.81189  -7.22068  -2.34395 
 H                    -3.18727  -6.58924   0.06214 
 C                    -1.54743  -5.2109    0.05734 
 C                     0.82377  -4.33467  -2.77228 
 C                     1.61295  -5.13821  -3.60964 
 C                     1.1212   -2.96411  -2.67957 
 C                     2.68199  -4.59151  -4.31942 
 H                     1.40109  -6.20726  -3.68655 
 C                     2.1903   -2.41944  -3.38922 
 H                     0.51554  -2.2939   -2.06511 
 C                     2.97624  -3.23161  -4.20823 
 H                     3.29172  -5.23407  -4.95714 
 H                     2.39355  -1.35193  -3.28815 
 H                     3.81501  -2.80481  -4.76075 
 F                    -1.72499  -4.90597   1.3426 
 C                     4.08443  -2.78281  -0.02414 
 H                     4.55717  -3.55086   0.60886 
 H                     4.2      -3.10524  -1.07177 
 H                     4.60297  -1.82675   0.11581 
 C                    -1.33475  -0.83745   2.28385 
 C                     0.72397   0.43852   2.44726 
 C                    -1.28785  -1.00791   3.7995 
 H                    -1.80318  -1.69421   1.79375 
 H                    -1.8788    0.08565   2.03705 
 C                     0.66885   0.23794   3.95862 
 H                     1.75429   0.52746   2.10072 
 H                     0.1962    1.36209   2.16477 
 H                    -0.76638  -1.95217   4.04927 
 H                    -2.31216  -1.06187   4.19054 
 H                     1.27204  -0.65003   4.22912 
 H                     1.09675   1.11949   4.45259 
 N                     0.04002  -0.67863   1.79899 
 O                    -0.65337   0.08771   4.40876 
 H                     2.19082  -4.63515  -0.51586 
 C                    -0.75122   6.76648  -2.9106 
 C                    -0.44803   5.7341   -2.05539 
 C                     0.88853   5.52567  -1.60873 
 C                     1.90434   6.3971   -2.09748 
 C                     1.55877   7.46475  -2.97307 
 C                     0.25813   7.64967  -3.36816 
 H                    -1.7806    6.90381  -3.24538 
 H                    -1.23967   5.06047  -1.72831 
 C                     1.25567   4.46424  -0.71219 
 C                     3.24902   6.17744  -1.72312 
 H                     2.35324   8.12419  -3.32796 
 H                    -0.00144   8.46709  -4.04264 
 C                     3.6093    5.12053  -0.90698 
 C                     2.58552   4.25957  -0.398 
 H                     4.0248    6.84646  -2.10019 
 C                     0.14275   3.59275  -0.20086 
 C                    -0.01079   2.2846   -0.62394 
 C                    -0.82381   4.17254   0.68615 
 C                    -1.2192    1.56078  -0.35043 
 C                    -1.99009   3.42822   1.02224 
 C                    -0.64478   5.45803   1.26805 
 C                    -2.18292   2.14775   0.4504 
 C                    -2.95243   3.99267   1.90537 
 C                    -1.58405   5.97284   2.12962 
 H                     0.25681   6.02809   1.04065 
 H                    -3.11751   1.61504   0.63816 
 C                    -2.75376   5.23805   2.44736 
 H                    -3.84502   3.41183   2.14601 
 H                    -1.42585   6.95495   2.57782 
 H                    -3.4914    5.66408   3.12919 
 S                     2.95267   2.82473   0.60381 
 O                     2.127     2.96912   1.77152 
 O                     4.35924   2.74225   0.84084 
 S                     1.41327   1.50593  -1.38841 
 O                     1.7337    2.27186  -2.5548 
 O                     1.10608   0.12029  -1.59796 
 N                     2.52313   1.57936  -0.27171 
 C                     5.00692   4.97828  -0.6213 
 C                     6.2085    4.96611  -0.45484 
 C                    -1.55042   0.30547  -0.96486 
 C                    -1.97063  -0.68491  -1.52932 
 C                    -2.39775  -1.77512  -2.35799 
 C                    -3.41006  -2.68503  -1.98654 
 C                    -1.81597  -1.90377  -3.62987 
 C                    -3.82913  -3.67482  -2.87043 
 C                    -2.23537  -2.89976  -4.50731 
 H                    -1.03347  -1.20183  -3.91994 
 C                    -3.24642  -3.78166  -4.13333 
 H                    -4.61697  -4.36553  -2.56993 
 H                    -1.7699   -2.97993  -5.49097 
 H                    -3.58248  -4.55979  -4.82015 
 C                     7.61776   4.88254  -0.21614 
 C                     8.51268   5.86264  -0.69124 
 C                     8.12776   3.7958    0.51094 
 C                     9.87758   5.75195  -0.44434 
 C                     9.49419   3.69112   0.75473 
 H                     7.43071   3.04107   0.877 
 C                     10.37039   4.66558   0.27884 
 H                     10.55748   6.51758  -0.81824 
 H                     9.87648   2.84084   1.32155 
 H                     11.44113   4.58385   0.46972 
 C                     7.97748   7.03823  -1.46704 
 F                     7.10113   7.75192  -0.75218 
 F                     7.34266   6.65799  -2.58112 
 F                     8.94975   7.87432  -1.83879 
 C                    -4.05009  -2.58282  -0.62778 
 F                    -4.57063  -1.37104  -0.40455 
 F                    -3.17463  -2.81051   0.35787 
 F                    -5.03943  -3.467    -0.47429 
 I                     1.93157  -4.98993   2.12763 
 N                     1.7949   -6.31812   4.50342 
 C                     2.11206  -7.57409   4.39868 
 C                     1.1802   -8.536     5.10447 
 C                     0.22929  -7.58209   5.81757 
 C                     0.63428  -6.20596   5.28224 
 O                     0.05257  -5.17284   5.48404 
 O                     3.13829  -7.95981   3.72142 
 H                     0.68127  -9.16492   4.3501 
 H                     1.75324  -9.21117   5.7562 
 H                     0.3616   -7.58359   6.90882 
 H                    -0.83387  -7.75859   5.60944 
 C                     2.27703  -10.36074   1.73702 
 C                     1.57431  -11.44421   1.22791 
 C                     1.36099  -12.56393   2.04709 
 C                     1.89005  -12.55959   3.33183 
 C                     2.60628  -11.43149   3.78702 
 N                     2.76347  -10.36328   2.99018 
 H                     1.77501  -13.43751   3.96425 
 C                     2.55663  -9.16522   0.88582 
 C                     1.57292  -8.55164   0.08057 
 C                     1.94326  -7.55819  -0.83342 
 C                     4.23889  -7.67943  -0.09874 
 C                     3.26635  -7.13074  -0.93046 
 H                     1.16851  -7.09811  -1.44975 
 H                     3.53917  -6.35256  -1.64708 
 H                     5.28143  -7.36178  -0.12892 
 C                     3.86632  -8.68106   0.7852 
 C                     0.13086  -8.89246   0.23713 
 C                    -0.61198  -9.42183  -0.82368 
 C                    -0.49943  -8.67114   1.46979 
 C                    -1.95277  -9.76436  -0.64211 
 H                    -0.12757  -9.58831  -1.78892 
 C                    -1.84133  -9.00149   1.64666 
 H                     0.07287  -8.2261    2.2884 
 C                    -2.56819  -9.56005   0.59287 
 H                    -2.51872  -10.19447  -1.47066 
 H                    -2.32243  -8.81971   2.60962 
 H                    -3.61674  -9.82855   0.7336 
 F                     4.81618  -9.22882   1.54962 
 C                     0.59687  -13.74301   1.51918 
 H                     0.5384   -14.55253   2.25718 
 H                    -0.42513  -13.43824   1.24851 
 H                     1.07256  -14.1302   0.60635 
 C                     4.43715  -10.68983   5.24502 
 C                     2.91595  -12.43219   6.00099 
 C                     4.5944   -10.26622   6.69352 
 H                     4.52686  -9.81582   4.59257 
 H                     5.25029  -11.39379   4.98497 
 C                     3.15838  -11.93024   7.41739 
 H                     1.87537  -12.77387   5.93069 
 H                     3.5812   -13.29114   5.78738 
 H                     3.85644  -9.4754    6.93388 
 H                     5.60111  -9.85899   6.85485 
 H                     2.37808  -11.18754   7.67629 
 H                     3.08549  -12.7678   8.12372 
 N                     3.14414  -11.35151   5.05255 
 O                     4.43269  -11.36031   7.56183 
 H                     1.20121  -11.42464   0.20419 
 H                     3.08672  -8.98906   3.48932 
 
 ITRead=  0  0  0  0  0  0  0  0  0  0  0  0  0  0  0  0  0  0  0  0
 ITRead=  0  0  0  0  0  0  0  0  0  0  0  0  0  0  0  0  0  0  0  0
 ITRead=  0  0  0  0  0  0  0  0  0  0  0  0  0  0  0  0  0  0  0  0
 ITRead=  0  0  0  0  0  0  0  0  0  0  0  0  0  0  0  0  0  0  0  0
 ITRead=  0  0  0  0  0  0  0  0  0  0  0  0  0  0  0  0  0  0  0  0
 ITRead=  0  0  0  0  0  0  0  0  0  0  0  0  0  0  0  0  0  0  0  0
 ITRead=  0  0  0  0  0  0  0  0  0  0  0  0  0  0  0  0  0  0  0  0
 ITRead=  0  0  0  0  0  0  0  0  0  0  0  0  0  0  0  0  0  0  0  0
 ITRead=  0  0  0  0  0  0  0  0  0  0  0  0  0  0  0  0
 MicOpt= -1 -1 -1 -1 -1 -1 -1 -1 -1 -1 -1 -1 -1 -1 -1 -1 -1 -1 -1 -1
 MicOpt= -1 -1 -1 -1 -1 -1 -1 -1 -1 -1 -1 -1 -1 -1 -1 -1 -1 -1 -1 -1
 MicOpt= -1 -1 -1 -1 -1 -1 -1 -1 -1 -1 -1 -1 -1 -1 -1 -1 -1 -1 -1 -1
 MicOpt= -1 -1 -1 -1 -1 -1 -1 -1 -1 -1 -1 -1 -1 -1 -1 -1 -1 -1 -1 -1
 MicOpt= -1 -1 -1 -1 -1 -1 -1 -1 -1 -1 -1 -1 -1 -1 -1 -1 -1 -1 -1 -1
 MicOpt= -1 -1 -1 -1 -1 -1 -1 -1 -1 -1 -1 -1 -1 -1 -1 -1 -1 -1 -1 -1
 MicOpt= -1 -1 -1 -1 -1 -1 -1 -1 -1 -1 -1 -1 -1 -1 -1 -1 -1 -1 -1 -1
 MicOpt= -1 -1 -1 -1 -1 -1 -1 -1 -1 -1 -1 -1 -1 -1 -1 -1 -1 -1 -1 -1
 MicOpt= -1 -1 -1 -1 -1 -1 -1 -1 -1 -1 -1 -1 -1 -1 -1 -1
 NAtoms=    176 NQM=      176 NQMF=       0 NMMI=      0 NMMIF=      0
                NMic=       0 NMicF=      0.
                    Isotopes and Nuclear Properties:
 (Nuclear quadrupole moments (NQMom) in fm**2, nuclear magnetic moments (NMagM)
  in nuclear magnetons)

  Atom         1           2           3           4           5           6           7           8           9          10
 IAtWgt=          12          12          12          12          12          14           1          12          12          12
 AtmWgt=  12.0000000  12.0000000  12.0000000  12.0000000  12.0000000  14.0030740   1.0078250  12.0000000  12.0000000  12.0000000
 NucSpn=           0           0           0           0           0           2           1           0           0           0
 AtZEff=  -0.0000000  -0.0000000  -0.0000000  -0.0000000  -0.0000000  -0.0000000  -0.0000000  -0.0000000  -0.0000000  -0.0000000
 NQMom=    0.0000000   0.0000000   0.0000000   0.0000000   0.0000000   2.0440000   0.0000000   0.0000000   0.0000000   0.0000000
 NMagM=    0.0000000   0.0000000   0.0000000   0.0000000   0.0000000   0.4037610   2.7928460   0.0000000   0.0000000   0.0000000
 AtZNuc=   6.0000000   6.0000000   6.0000000   6.0000000   6.0000000   7.0000000   1.0000000   6.0000000   6.0000000   6.0000000

  Atom        11          12          13          14          15          16          17          18          19          20
 IAtWgt=          12          12           1           1           1          12          12          12          12          12
 AtmWgt=  12.0000000  12.0000000   1.0078250   1.0078250   1.0078250  12.0000000  12.0000000  12.0000000  12.0000000  12.0000000
 NucSpn=           0           0           1           1           1           0           0           0           0           0
 AtZEff=  -0.0000000  -0.0000000  -0.0000000  -0.0000000  -0.0000000  -0.0000000  -0.0000000  -0.0000000  -0.0000000  -0.0000000
 NQMom=    0.0000000   0.0000000   0.0000000   0.0000000   0.0000000   0.0000000   0.0000000   0.0000000   0.0000000   0.0000000
 NMagM=    0.0000000   0.0000000   2.7928460   2.7928460   2.7928460   0.0000000   0.0000000   0.0000000   0.0000000   0.0000000
 AtZNuc=   6.0000000   6.0000000   1.0000000   1.0000000   1.0000000   6.0000000   6.0000000   6.0000000   6.0000000   6.0000000

  Atom        21          22          23          24          25          26          27          28          29          30
 IAtWgt=           1          12           1          12           1           1           1          19          12           1
 AtmWgt=   1.0078250  12.0000000   1.0078250  12.0000000   1.0078250   1.0078250   1.0078250  18.9984032  12.0000000   1.0078250
 NucSpn=           1           0           1           0           1           1           1           1           0           1
 AtZEff=  -0.0000000  -0.0000000  -0.0000000  -0.0000000  -0.0000000  -0.0000000  -0.0000000  -0.0000000  -0.0000000  -0.0000000
 NQMom=    0.0000000   0.0000000   0.0000000   0.0000000   0.0000000   0.0000000   0.0000000   0.0000000   0.0000000   0.0000000
 NMagM=    2.7928460   0.0000000   2.7928460   0.0000000   2.7928460   2.7928460   2.7928460   2.6288670   0.0000000   2.7928460
 AtZNuc=   1.0000000   6.0000000   1.0000000   6.0000000   1.0000000   1.0000000   1.0000000   9.0000000   6.0000000   1.0000000

  Atom        31          32          33          34          35          36          37          38          39          40
 IAtWgt=           1           1          12          12          12           1           1          12           1           1
 AtmWgt=   1.0078250   1.0078250  12.0000000  12.0000000  12.0000000   1.0078250   1.0078250  12.0000000   1.0078250   1.0078250
 NucSpn=           1           1           0           0           0           1           1           0           1           1
 AtZEff=  -0.0000000  -0.0000000  -0.0000000  -0.0000000  -0.0000000  -0.0000000  -0.0000000  -0.0000000  -0.0000000  -0.0000000
 NQMom=    0.0000000   0.0000000   0.0000000   0.0000000   0.0000000   0.0000000   0.0000000   0.0000000   0.0000000   0.0000000
 NMagM=    2.7928460   2.7928460   0.0000000   0.0000000   0.0000000   2.7928460   2.7928460   0.0000000   2.7928460   2.7928460
 AtZNuc=   1.0000000   1.0000000   6.0000000   6.0000000   6.0000000   1.0000000   1.0000000   6.0000000   1.0000000   1.0000000

  Atom        41          42          43          44          45          46          47          48          49          50
 IAtWgt=           1           1           1           1          14          16           1          12          12          12
 AtmWgt=   1.0078250   1.0078250   1.0078250   1.0078250  14.0030740  15.9949146   1.0078250  12.0000000  12.0000000  12.0000000
 NucSpn=           1           1           1           1           2           0           1           0           0           0
 AtZEff=  -0.0000000  -0.0000000  -0.0000000  -0.0000000  -0.0000000  -0.0000000  -0.0000000  -0.0000000  -0.0000000  -0.0000000
 NQMom=    0.0000000   0.0000000   0.0000000   0.0000000   2.0440000   0.0000000   0.0000000   0.0000000   0.0000000   0.0000000
 NMagM=    2.7928460   2.7928460   2.7928460   2.7928460   0.4037610   0.0000000   2.7928460   0.0000000   0.0000000   0.0000000
 AtZNuc=   1.0000000   1.0000000   1.0000000   1.0000000   7.0000000   8.0000000   1.0000000   6.0000000   6.0000000   6.0000000

  Atom        51          52          53          54          55          56          57          58          59          60
 IAtWgt=          12          12          12           1           1          12          12           1           1          12
 AtmWgt=  12.0000000  12.0000000  12.0000000   1.0078250   1.0078250  12.0000000  12.0000000   1.0078250   1.0078250  12.0000000
 NucSpn=           0           0           0           1           1           0           0           1           1           0
 AtZEff=  -0.0000000  -0.0000000  -0.0000000  -0.0000000  -0.0000000  -0.0000000  -0.0000000  -0.0000000  -0.0000000  -0.0000000
 NQMom=    0.0000000   0.0000000   0.0000000   0.0000000   0.0000000   0.0000000   0.0000000   0.0000000   0.0000000   0.0000000
 NMagM=    0.0000000   0.0000000   0.0000000   2.7928460   2.7928460   0.0000000   0.0000000   2.7928460   2.7928460   0.0000000
 AtZNuc=   6.0000000   6.0000000   6.0000000   1.0000000   1.0000000   6.0000000   6.0000000   1.0000000   1.0000000   6.0000000

  Atom        61          62          63          64          65          66          67          68          69          70
 IAtWgt=          12           1          12          12          12          12          12          12          12          12
 AtmWgt=  12.0000000   1.0078250  12.0000000  12.0000000  12.0000000  12.0000000  12.0000000  12.0000000  12.0000000  12.0000000
 NucSpn=           0           1           0           0           0           0           0           0           0           0
 AtZEff=  -0.0000000  -0.0000000  -0.0000000  -0.0000000  -0.0000000  -0.0000000  -0.0000000  -0.0000000  -0.0000000  -0.0000000
 NQMom=    0.0000000   0.0000000   0.0000000   0.0000000   0.0000000   0.0000000   0.0000000   0.0000000   0.0000000   0.0000000
 NMagM=    0.0000000   2.7928460   0.0000000   0.0000000   0.0000000   0.0000000   0.0000000   0.0000000   0.0000000   0.0000000
 AtZNuc=   6.0000000   1.0000000   6.0000000   6.0000000   6.0000000   6.0000000   6.0000000   6.0000000   6.0000000   6.0000000

  Atom        71          72          73          74          75          76          77          78          79          80
 IAtWgt=          12           1           1          12           1           1           1          32          16          16
 AtmWgt=  12.0000000   1.0078250   1.0078250  12.0000000   1.0078250   1.0078250   1.0078250  31.9720718  15.9949146  15.9949146
 NucSpn=           0           1           1           0           1           1           1           0           0           0
 AtZEff=  -0.0000000  -0.0000000  -0.0000000  -0.0000000  -0.0000000  -0.0000000  -0.0000000  -0.0000000  -0.0000000  -0.0000000
 NQMom=    0.0000000   0.0000000   0.0000000   0.0000000   0.0000000   0.0000000   0.0000000   0.0000000   0.0000000   0.0000000
 NMagM=    0.0000000   2.7928460   2.7928460   0.0000000   2.7928460   2.7928460   2.7928460   0.0000000   0.0000000   0.0000000
 AtZNuc=   6.0000000   1.0000000   1.0000000   6.0000000   1.0000000   1.0000000   1.0000000  16.0000000   8.0000000   8.0000000

  Atom        81          82          83          84          85          86          87          88          89          90
 IAtWgt=          32          16          16          14          12          12          12          12          12          12
 AtmWgt=  31.9720718  15.9949146  15.9949146  14.0030740  12.0000000  12.0000000  12.0000000  12.0000000  12.0000000  12.0000000
 NucSpn=           0           0           0           2           0           0           0           0           0           0
 AtZEff=  -0.0000000  -0.0000000  -0.0000000  -0.0000000  -0.0000000  -0.0000000  -0.0000000  -0.0000000  -0.0000000  -0.0000000
 NQMom=    0.0000000   0.0000000   0.0000000   2.0440000   0.0000000   0.0000000   0.0000000   0.0000000   0.0000000   0.0000000
 NMagM=    0.0000000   0.0000000   0.0000000   0.4037610   0.0000000   0.0000000   0.0000000   0.0000000   0.0000000   0.0000000
 AtZNuc=  16.0000000   8.0000000   8.0000000   7.0000000   6.0000000   6.0000000   6.0000000   6.0000000   6.0000000   6.0000000

  Atom        91          92          93          94          95          96          97          98          99         100
 IAtWgt=          12          12          12           1          12           1           1           1          12          12
 AtmWgt=  12.0000000  12.0000000  12.0000000   1.0078250  12.0000000   1.0078250   1.0078250   1.0078250  12.0000000  12.0000000
 NucSpn=           0           0           0           1           0           1           1           1           0           0
 AtZEff=  -0.0000000  -0.0000000  -0.0000000  -0.0000000  -0.0000000  -0.0000000  -0.0000000  -0.0000000  -0.0000000  -0.0000000
 NQMom=    0.0000000   0.0000000   0.0000000   0.0000000   0.0000000   0.0000000   0.0000000   0.0000000   0.0000000   0.0000000
 NMagM=    0.0000000   0.0000000   0.0000000   2.7928460   0.0000000   2.7928460   2.7928460   2.7928460   0.0000000   0.0000000
 AtZNuc=   6.0000000   6.0000000   6.0000000   1.0000000   6.0000000   1.0000000   1.0000000   1.0000000   6.0000000   6.0000000

  Atom       101         102         103         104         105         106         107         108         109         110
 IAtWgt=          12          12          12           1          12           1           1           1          12          19
 AtmWgt=  12.0000000  12.0000000  12.0000000   1.0078250  12.0000000   1.0078250   1.0078250   1.0078250  12.0000000  18.9984032
 NucSpn=           0           0           0           1           0           1           1           1           0           1
 AtZEff=  -0.0000000  -0.0000000  -0.0000000  -0.0000000  -0.0000000  -0.0000000  -0.0000000  -0.0000000  -0.0000000  -0.0000000
 NQMom=    0.0000000   0.0000000   0.0000000   0.0000000   0.0000000   0.0000000   0.0000000   0.0000000   0.0000000   0.0000000
 NMagM=    0.0000000   0.0000000   0.0000000   2.7928460   0.0000000   2.7928460   2.7928460   2.7928460   0.0000000   2.6288670
 AtZNuc=   6.0000000   6.0000000   6.0000000   1.0000000   6.0000000   1.0000000   1.0000000   1.0000000   6.0000000   9.0000000

  Atom       111         112         113         114         115         116         117         118         119         120
 IAtWgt=          19          19          12          19          19          19         127          14          12          12
 AtmWgt=  18.9984032  18.9984032  12.0000000  18.9984032  18.9984032  18.9984032 126.9004000  14.0030740  12.0000000  12.0000000
 NucSpn=           1           1           0           1           1           1           5           2           0           0
 AtZEff=  -0.0000000  -0.0000000  -0.0000000  -0.0000000  -0.0000000  -0.0000000  -0.0000000  -0.0000000  -0.0000000  -0.0000000
 NQMom=    0.0000000   0.0000000   0.0000000   0.0000000   0.0000000   0.0000000 -71.0000000   2.0440000   0.0000000   0.0000000
 NMagM=    2.6288670   2.6288670   0.0000000   2.6288670   2.6288670   2.6288670   2.8132800   0.4037610   0.0000000   0.0000000
 AtZNuc=   9.0000000   9.0000000   6.0000000   9.0000000   9.0000000   9.0000000  53.0000000   7.0000000   6.0000000   6.0000000

  Atom       121         122         123         124         125         126         127         128         129         130
 IAtWgt=          12          12          16          16           1           1           1           1          12          12
 AtmWgt=  12.0000000  12.0000000  15.9949146  15.9949146   1.0078250   1.0078250   1.0078250   1.0078250  12.0000000  12.0000000
 NucSpn=           0           0           0           0           1           1           1           1           0           0
 AtZEff=  -0.0000000  -0.0000000  -0.0000000  -0.0000000  -0.0000000  -0.0000000  -0.0000000  -0.0000000  -0.0000000  -0.0000000
 NQMom=    0.0000000   0.0000000   0.0000000   0.0000000   0.0000000   0.0000000   0.0000000   0.0000000   0.0000000   0.0000000
 NMagM=    0.0000000   0.0000000   0.0000000   0.0000000   2.7928460   2.7928460   2.7928460   2.7928460   0.0000000   0.0000000
 AtZNuc=   6.0000000   6.0000000   8.0000000   8.0000000   1.0000000   1.0000000   1.0000000   1.0000000   6.0000000   6.0000000

  Atom       131         132         133         134         135         136         137         138         139         140
 IAtWgt=          12          12          12          14           1          12          12          12          12          12
 AtmWgt=  12.0000000  12.0000000  12.0000000  14.0030740   1.0078250  12.0000000  12.0000000  12.0000000  12.0000000  12.0000000
 NucSpn=           0           0           0           2           1           0           0           0           0           0
 AtZEff=  -0.0000000  -0.0000000  -0.0000000  -0.0000000  -0.0000000  -0.0000000  -0.0000000  -0.0000000  -0.0000000  -0.0000000
 NQMom=    0.0000000   0.0000000   0.0000000   2.0440000   0.0000000   0.0000000   0.0000000   0.0000000   0.0000000   0.0000000
 NMagM=    0.0000000   0.0000000   0.0000000   0.4037610   2.7928460   0.0000000   0.0000000   0.0000000   0.0000000   0.0000000
 AtZNuc=   6.0000000   6.0000000   6.0000000   7.0000000   1.0000000   6.0000000   6.0000000   6.0000000   6.0000000   6.0000000

  Atom       141         142         143         144         145         146         147         148         149         150
 IAtWgt=           1           1           1          12          12          12          12          12           1          12
 AtmWgt=   1.0078250   1.0078250   1.0078250  12.0000000  12.0000000  12.0000000  12.0000000  12.0000000   1.0078250  12.0000000
 NucSpn=           1           1           1           0           0           0           0           0           1           0
 AtZEff=  -0.0000000  -0.0000000  -0.0000000  -0.0000000  -0.0000000  -0.0000000  -0.0000000  -0.0000000  -0.0000000  -0.0000000
 NQMom=    0.0000000   0.0000000   0.0000000   0.0000000   0.0000000   0.0000000   0.0000000   0.0000000   0.0000000   0.0000000
 NMagM=    2.7928460   2.7928460   2.7928460   0.0000000   0.0000000   0.0000000   0.0000000   0.0000000   2.7928460   0.0000000
 AtZNuc=   1.0000000   1.0000000   1.0000000   6.0000000   6.0000000   6.0000000   6.0000000   6.0000000   1.0000000   6.0000000

  Atom       151         152         153         154         155         156         157         158         159         160
 IAtWgt=           1          12           1           1           1          19          12           1           1           1
 AtmWgt=   1.0078250  12.0000000   1.0078250   1.0078250   1.0078250  18.9984032  12.0000000   1.0078250   1.0078250   1.0078250
 NucSpn=           1           0           1           1           1           1           0           1           1           1
 AtZEff=  -0.0000000  -0.0000000  -0.0000000  -0.0000000  -0.0000000  -0.0000000  -0.0000000  -0.0000000  -0.0000000  -0.0000000
 NQMom=    0.0000000   0.0000000   0.0000000   0.0000000   0.0000000   0.0000000   0.0000000   0.0000000   0.0000000   0.0000000
 NMagM=    2.7928460   0.0000000   2.7928460   2.7928460   2.7928460   2.6288670   0.0000000   2.7928460   2.7928460   2.7928460
 AtZNuc=   1.0000000   6.0000000   1.0000000   1.0000000   1.0000000   9.0000000   6.0000000   1.0000000   1.0000000   1.0000000

  Atom       161         162         163         164         165         166         167         168         169         170
 IAtWgt=          12          12          12           1           1          12           1           1           1           1
 AtmWgt=  12.0000000  12.0000000  12.0000000   1.0078250   1.0078250  12.0000000   1.0078250   1.0078250   1.0078250   1.0078250
 NucSpn=           0           0           0           1           1           0           1           1           1           1
 AtZEff=  -0.0000000  -0.0000000  -0.0000000  -0.0000000  -0.0000000  -0.0000000  -0.0000000  -0.0000000  -0.0000000  -0.0000000
 NQMom=    0.0000000   0.0000000   0.0000000   0.0000000   0.0000000   0.0000000   0.0000000   0.0000000   0.0000000   0.0000000
 NMagM=    0.0000000   0.0000000   0.0000000   2.7928460   2.7928460   0.0000000   2.7928460   2.7928460   2.7928460   2.7928460
 AtZNuc=   6.0000000   6.0000000   6.0000000   1.0000000   1.0000000   6.0000000   1.0000000   1.0000000   1.0000000   1.0000000

  Atom       171         172         173         174         175         176
 IAtWgt=           1           1          14          16           1           1
 AtmWgt=   1.0078250   1.0078250  14.0030740  15.9949146   1.0078250   1.0078250
 NucSpn=           1           1           2           0           1           1
 AtZEff=  -0.0000000  -0.0000000  -0.0000000  -0.0000000  -0.0000000  -0.0000000
 NQMom=    0.0000000   0.0000000   2.0440000   0.0000000   0.0000000   0.0000000
 NMagM=    2.7928460   2.7928460   0.4037610   0.0000000   2.7928460   2.7928460
 AtZNuc=   1.0000000   1.0000000   7.0000000   8.0000000   1.0000000   1.0000000
 Leave Link  101 at Tue Feb 18 07:33:47 2025, MaxMem=  4831838208 cpu:               2.4 elap:               0.1
 (Enter /ihome/crc/install/gaussian/c01/avx2/tar/g16/l202.exe)
 Symmetry turned off by external request.
 Stoichiometry    C86H65F8IN6O8S2
 Framework group  C1[X(C86H65F8IN6O8S2)]
 Deg. of freedom   522
 Full point group                 C1      NOp   1
                          Input orientation:                          
 ---------------------------------------------------------------------
 Center     Atomic      Atomic             Coordinates (Angstroms)
 Number     Number       Type             X           Y           Z
 ---------------------------------------------------------------------
      1          6           0        0.369816   -3.624566    0.058380
      2          6           0        1.814850   -3.904305    0.206051
      3          6           0        2.632628   -2.672410    0.302907
      4          6           0        2.036813   -1.521688    0.683389
      5          6           0        0.624899   -1.565777    1.025443
      6          7           0       -0.178402   -2.556002    0.517150
      7          1           0        2.592900   -0.587597    0.729735
      8          6           0       -0.496004   -4.609511   -0.637013
      9          6           0       -0.282816   -4.950448   -1.989098
     10          6           0       -1.123311   -5.902533   -2.581623
     11          6           0       -2.386707   -6.145231   -0.530104
     12          6           0       -2.160986   -6.489692   -1.861201
     13          1           0       -0.976939   -6.157091   -3.632517
     14          1           0       -2.811886   -7.220678   -2.343950
     15          1           0       -3.187270   -6.589240    0.062140
     16          6           0       -1.547427   -5.210900    0.057336
     17          6           0        0.823772   -4.334675   -2.772275
     18          6           0        1.612953   -5.138212   -3.609643
     19          6           0        1.121195   -2.964110   -2.679571
     20          6           0        2.681994   -4.591508   -4.319415
     21          1           0        1.401090   -6.207257   -3.686552
     22          6           0        2.190305   -2.419437   -3.389217
     23          1           0        0.515540   -2.293903   -2.065106
     24          6           0        2.976244   -3.231612   -4.208228
     25          1           0        3.291723   -5.234071   -4.957143
     26          1           0        2.393545   -1.351926   -3.288147
     27          1           0        3.815008   -2.804813   -4.760751
     28          9           0       -1.724987   -4.905966    1.342603
     29          6           0        4.084433   -2.782806   -0.024137
     30          1           0        4.557170   -3.550861    0.608859
     31          1           0        4.200003   -3.105236   -1.071774
     32          1           0        4.602969   -1.826753    0.115809
     33          6           0       -1.334753   -0.837453    2.283853
     34          6           0        0.723972    0.438518    2.447259
     35          6           0       -1.287847   -1.007911    3.799495
     36          1           0       -1.803180   -1.694205    1.793749
     37          1           0       -1.878804    0.085650    2.037046
     38          6           0        0.668853    0.237941    3.958616
     39          1           0        1.754292    0.527457    2.100724
     40          1           0        0.196202    1.362085    2.164767
     41          1           0       -0.766376   -1.952165    4.049266
     42          1           0       -2.312162   -1.061870    4.190544
     43          1           0        1.272044   -0.650034    4.229124
     44          1           0        1.096753    1.119492    4.452589
     45          7           0        0.040015   -0.678634    1.798990
     46          8           0       -0.653371    0.087713    4.408761
     47          1           0        2.190819   -4.635149   -0.515863
     48          6           0       -0.751222    6.766477   -2.910597
     49          6           0       -0.448033    5.734096   -2.055390
     50          6           0        0.888531    5.525667   -1.608729
     51          6           0        1.904342    6.397095   -2.097485
     52          6           0        1.558769    7.464750   -2.973071
     53          6           0        0.258128    7.649669   -3.368161
     54          1           0       -1.780597    6.903809   -3.245381
     55          1           0       -1.239667    5.060466   -1.728308
     56          6           0        1.255674    4.464241   -0.712189
     57          6           0        3.249020    6.177438   -1.723123
     58          1           0        2.353235    8.124187   -3.327959
     59          1           0       -0.001436    8.467085   -4.042638
     60          6           0        3.609304    5.120531   -0.906979
     61          6           0        2.585524    4.259571   -0.398001
     62          1           0        4.024802    6.846461   -2.100185
     63          6           0        0.142754    3.592749   -0.200860
     64          6           0       -0.010788    2.284599   -0.623943
     65          6           0       -0.823808    4.172536    0.686154
     66          6           0       -1.219198    1.560780   -0.350432
     67          6           0       -1.990094    3.428215    1.022244
     68          6           0       -0.644780    5.458025    1.268046
     69          6           0       -2.182923    2.147748    0.450395
     70          6           0       -2.952425    3.992672    1.905374
     71          6           0       -1.584050    5.972844    2.129618
     72          1           0        0.256807    6.028091    1.040648
     73          1           0       -3.117510    1.615042    0.638161
     74          6           0       -2.753756    5.238049    2.447360
     75          1           0       -3.845023    3.411825    2.146006
     76          1           0       -1.425845    6.954955    2.577817
     77          1           0       -3.491402    5.664082    3.129188
     78         16           0        2.952670    2.824734    0.603805
     79          8           0        2.127002    2.969119    1.771516
     80          8           0        4.359237    2.742252    0.840844
     81         16           0        1.413271    1.505926   -1.388409
     82          8           0        1.733703    2.271857   -2.554799
     83          8           0        1.106080    0.120291   -1.597958
     84          7           0        2.523132    1.579360   -0.271711
     85          6           0        5.006924    4.978277   -0.621304
     86          6           0        6.208497    4.966107   -0.454838
     87          6           0       -1.550422    0.305471   -0.964861
     88          6           0       -1.970625   -0.684914   -1.529315
     89          6           0       -2.397748   -1.775120   -2.357991
     90          6           0       -3.410060   -2.685034   -1.986542
     91          6           0       -1.815968   -1.903765   -3.629865
     92          6           0       -3.829134   -3.674819   -2.870430
     93          6           0       -2.235371   -2.899763   -4.507308
     94          1           0       -1.033465   -1.201828   -3.919939
     95          6           0       -3.246419   -3.781660   -4.133333
     96          1           0       -4.616967   -4.365528   -2.569928
     97          1           0       -1.769903   -2.979930   -5.490966
     98          1           0       -3.582481   -4.559794   -4.820151
     99          6           0        7.617756    4.882541   -0.216143
    100          6           0        8.512683    5.862644   -0.691240
    101          6           0        8.127756    3.795801    0.510938
    102          6           0        9.877582    5.751953   -0.444338
    103          6           0        9.494187    3.691118    0.754728
    104          1           0        7.430710    3.041068    0.877004
    105          6           0       10.370390    4.665577    0.278840
    106          1           0       10.557482    6.517579   -0.818242
    107          1           0        9.876476    2.840840    1.321548
    108          1           0       11.441127    4.583852    0.469717
    109          6           0        7.977477    7.038232   -1.467039
    110          9           0        7.101130    7.751924   -0.752181
    111          9           0        7.342661    6.657993   -2.581120
    112          9           0        8.949755    7.874323   -1.838789
    113          6           0       -4.050095   -2.582821   -0.627775
    114          9           0       -4.570631   -1.371041   -0.404547
    115          9           0       -3.174627   -2.810505    0.357870
    116          9           0       -5.039429   -3.467001   -0.474292
    117         53           0        1.931568   -4.989933    2.127632
    118          7           0        1.794902   -6.318121    4.503420
    119          6           0        2.112058   -7.574085    4.398681
    120          6           0        1.180200   -8.535997    5.104470
    121          6           0        0.229285   -7.582092    5.817567
    122          6           0        0.634284   -6.205963    5.282239
    123          8           0        0.052570   -5.172840    5.484035
    124          8           0        3.138286   -7.959814    3.721423
    125          1           0        0.681269   -9.164917    4.350098
    126          1           0        1.753235   -9.211166    5.756198
    127          1           0        0.361601   -7.583592    6.908818
    128          1           0       -0.833868   -7.758585    5.609440
    129          6           0        2.277030  -10.360744    1.737017
    130          6           0        1.574307  -11.444210    1.227909
    131          6           0        1.360994  -12.563926    2.047090
    132          6           0        1.890053  -12.559593    3.331829
    133          6           0        2.606281  -11.431493    3.787024
    134          7           0        2.763473  -10.363281    2.990182
    135          1           0        1.775010  -13.437509    3.964245
    136          6           0        2.556628   -9.165217    0.885820
    137          6           0        1.572920   -8.551636    0.080566
    138          6           0        1.943263   -7.558192   -0.833416
    139          6           0        4.238891   -7.679434   -0.098735
    140          6           0        3.266349   -7.130737   -0.930458
    141          1           0        1.168515   -7.098111   -1.449748
    142          1           0        3.539169   -6.352557   -1.647076
    143          1           0        5.281425   -7.361782   -0.128915
    144          6           0        3.866319   -8.681055    0.785201
    145          6           0        0.130858   -8.892464    0.237131
    146          6           0       -0.611975   -9.421828   -0.823676
    147          6           0       -0.499432   -8.671140    1.469786
    148          6           0       -1.952766   -9.764362   -0.642108
    149          1           0       -0.127565   -9.588309   -1.788915
    150          6           0       -1.841329   -9.001491    1.646662
    151          1           0        0.072865   -8.226101    2.288401
    152          6           0       -2.568192   -9.560054    0.592873
    153          1           0       -2.518716  -10.194474   -1.470659
    154          1           0       -2.322432   -8.819711    2.609616
    155          1           0       -3.616739   -9.828546    0.733604
    156          9           0        4.816179   -9.228819    1.549621
    157          6           0        0.596868  -13.743005    1.519175
    158          1           0        0.538399  -14.552532    2.257180
    159          1           0       -0.425128  -13.438237    1.248506
    160          1           0        1.072557  -14.130203    0.606354
    161          6           0        4.437147  -10.689828    5.245018
    162          6           0        2.915949  -12.432188    6.000986
    163          6           0        4.594402  -10.266217    6.693515
    164          1           0        4.526859   -9.815824    4.592573
    165          1           0        5.250289  -11.393788    4.984966
    166          6           0        3.158381  -11.930238    7.417391
    167          1           0        1.875368  -12.773867    5.930693
    168          1           0        3.581199  -13.291137    5.787383
    169          1           0        3.856437   -9.475399    6.933879
    170          1           0        5.601107   -9.858990    6.854852
    171          1           0        2.378081  -11.187537    7.676294
    172          1           0        3.085494  -12.767798    8.123724
    173          7           0        3.144140  -11.351510    5.052546
    174          8           0        4.432690  -11.360314    7.561825
    175          1           0        1.201213  -11.424644    0.204192
    176          1           0        3.086720   -8.989057    3.489322
 ---------------------------------------------------------------------
 Rotational constants (GHZ):           0.0207878           0.0075210           0.0066232
 Leave Link  202 at Tue Feb 18 07:33:47 2025, MaxMem=  4831838208 cpu:               1.0 elap:               0.1
 (Enter /ihome/crc/install/gaussian/c01/avx2/tar/g16/l301.exe)
 Standard basis: def2TZVPP (5D, 7F)
 Ernie: Thresh=  0.10000D-02 Tol=  0.10000D-05 Strict=F.
  4392 basis functions,  6860 primitive gaussians,  5018 cartesian basis functions
   408 alpha electrons      408 beta electrons
       nuclear repulsion energy     25704.0226670146 Hartrees.
 IExCor=  402 DFT=T Ex+Corr=B3LYP ExCW=0 ScaHFX=  0.200000
 ScaDFX=  0.800000  0.720000  1.000000  0.810000 ScalE2=  1.000000  1.000000
 IRadAn=      5 IRanWt=     -1 IRanGd=            0 ICorTp=0 IEmpDi=141
 NAtoms=  176 NActive=  176 NUniq=  176 SFac= 1.00D+00 NAtFMM=   60 NAOKFM=T Big=T
 Integral buffers will be    131072 words long.
 Raffenetti 2 integral format.
 Two-electron integral symmetry is turned off.
 R6Disp:  Grimme-D3(BJ) Dispersion energy=       -0.5605576210 Hartrees.
 Nuclear repulsion after empirical dispersion term =    25703.4621093936 Hartrees.
 ------------------------------------------------------------------------------
 Polarizable Continuum Model (PCM)
 =================================
 Model                : PCM.
 Atomic radii         : SMD-Coulomb.
 Polarization charges : Total charges.
 Charge compensation  : None.
 Solution method      : On-the-fly selection.
 Cavity type          : VdW (van der Waals Surface) (Alpha=1.000).
 Cavity algorithm     : GePol (No added spheres)
                        Default sphere list used, NSphG=  176.
                        Lebedev-Laikov grids with approx.  5.0 points / Ang**2.
                        Smoothing algorithm: York/Karplus (Gamma=1.0000).
                        Polarization charges: spherical gaussians, with
                                              point-specific exponents (IZeta= 3).
                        Self-potential: point-specific (ISelfS= 7).
                        Self-field    : sphere-specific E.n sum rule (ISelfD= 2).
 Solvent              : PropylEthanoate, Eps=   5.520500 Eps(inf)=   1.916010
 ------------------------------------------------------------------------------
 GePol: Number of generator spheres                  =     176
 GePol: Total number of spheres                      =     176
 GePol: Number of exposed spheres                    =     175 ( 99.43%)
 GePol: Number of points                             =   12647
 GePol: Average weight of points                     =       0.11
 GePol: Minimum weight of points                     =   0.46D-11
 GePol: Maximum weight of points                     =    0.21501
 GePol: Number of points with low weight             =     785
 GePol: Fraction of low-weight points (<1% of avg)   =       6.21%
 GePol: Cavity surface area                          =   1399.118 Ang**2
 GePol: Cavity volume                                =   1566.417 Ang**3
 ------------------------------------------------------------------------------
 Atomic radii for non-electrostatic terms: SMD-CDS.
 ------------------------------------------------------------------------------
 PCM non-electrostatic energy =        -0.0321748818 Hartrees.
 Nuclear repulsion after PCM non-electrostatic terms =    25703.4299345118 Hartrees.
 Leave Link  301 at Tue Feb 18 07:33:47 2025, MaxMem=  4831838208 cpu:               2.3 elap:               0.1
 (Enter /ihome/crc/install/gaussian/c01/avx2/tar/g16/l302.exe)
 NPDir=0 NMtPBC=     1 NCelOv=     1 NCel=       1 NClECP=     1 NCelD=      1
         NCelK=      1 NCelE2=     1 NClLst=     1 CellRange=     0.0.
 One-electron integrals computed using PRISM.
   1 Symmetry operations used in ECPInt.
 ECPInt:  NShTT= 1316253 NPrTT= 3826671 LenC2=  650265 LenP2D= 1189936.
 LDataN:  DoStor=T MaxTD1= 7 Len=  274
 Number of processors reduced to   8 by ecpmxn.
 NBasis=  4392 RedAO= T EigKep=  1.95D-06  NBF=  4392
 NBsUse=  4392 1.00D-06 EigRej= -1.00D+00 NBFU=  4392
 Precomputing XC quadrature grid using
 IXCGrd= 4 IRadAn=           5 IRanWt=          -1 IRanGd=           0 AccXCQ= 0.00D+00.
 Defaulting to unpruned grid for atomic number  53.
 Generated NRdTot=       0 NPtTot=           0 NUsed=           0 NTot=          32
 NSgBfM=  3481  3481  3481  3481  3481 MxSgAt=   176 MxSgA2=   176.
 Leave Link  302 at Tue Feb 18 07:34:24 2025, MaxMem=  4831838208 cpu:             867.6 elap:              37.4
 (Enter /ihome/crc/install/gaussian/c01/avx2/tar/g16/l303.exe)
 DipDrv:  MaxL=1.
 Leave Link  303 at Tue Feb 18 07:34:27 2025, MaxMem=  4831838208 cpu:              27.5 elap:               1.3
 (Enter /ihome/crc/install/gaussian/c01/avx2/tar/g16/l401.exe)
 ExpMin= 7.49D-02 ExpMax= 6.07D+04 ExpMxC= 2.07D+03 IAcc=3 IRadAn=         5 AccDes= 0.00D+00
 Harris functional with IExCor=  402 and IRadAn=       5 diagonalized for initial guess.
 HarFok:  IExCor=  402 AccDes= 0.00D+00 IRadAn=         5 IDoV= 1 UseB2=F ITyADJ=14
 ICtDFT=  3500011 ScaDFX=  1.000000  1.000000  1.000000  1.000000
 Defaulting to unpruned grid for atomic number  53.
 FoFCou: FMM=F IPFlag=           0 FMFlag=      100000 FMFlg1=        2001
         NFxFlg=           0 DoJE=T BraDBF=F KetDBF=T FulRan=T
         wScrn=  0.000000 ICntrl=       500 IOpCl=  0 I1Cent=   200000004 NGrid=           0
         NMat0=    1 NMatS0=      1 NMatT0=    0 NMatD0=    1 NMtDS0=    0 NMtDT0=    0
 Symmetry not used in FoFCou.
 Harris En= -6142.00496898876    
 JPrj=0 DoOrth=F DoCkMO=F.
 Leave Link  401 at Tue Feb 18 07:34:59 2025, MaxMem=  4831838208 cpu:             765.4 elap:              32.0
 (Enter /ihome/crc/install/gaussian/c01/avx2/tar/g16/l502.exe)
 Two-electron integral symmetry not used.
 Closed shell SCF:
 Using DIIS extrapolation, IDIIS=  1040.
 NGot=  4831838208 LenX=  4781322368 LenY=  4756137026
 Requested convergence on RMS density matrix=1.00D-08 within 128 cycles.
 Requested convergence on MAX density matrix=1.00D-06.
 Requested convergence on             energy=1.00D-06.
 No special actions if energy rises.
 Fock matrices will be formed incrementally for  20 cycles.

 Cycle   1  Pass 1  IDiag  1:
 FoFJK:  IHMeth= 1 ICntrl=       0 DoSepK=F KAlg= 0 I1Cent=           0 FoldK=F
 IRaf= 440000000 NMat=       1 IRICut=       1 DoRegI=T DoRafI=F ISym2E= 0 IDoP0=0 IntGTp=1.
 FoFCou: FMM=T IPFlag=           0 FMFlag=      100000 FMFlg1=        2001
         NFxFlg=           0 DoJE=F BraDBF=F KetDBF=F FulRan=T
         wScrn=  0.000000 ICntrl=         0 IOpCl=  0 I1Cent=           0 NGrid=           0
         NMat0=    1 NMatS0=      1 NMatT0=    0 NMatD0=    1 NMtDS0=    0 NMtDT0=    0
 Symmetry not used in FoFCou.
 FMM levels:  10  Number of levels for PrismC:   9
 Defaulting to unpruned grid for atomic number  53.
 Defaulting to unpruned grid for atomic number  53.
 Defaulting to unpruned grid for atomic number  53.
 Defaulting to unpruned grid for atomic number  53.
 Defaulting to unpruned grid for atomic number  53.
 Defaulting to unpruned grid for atomic number  53.
 Defaulting to unpruned grid for atomic number  53.
 Defaulting to unpruned grid for atomic number  53.
 Defaulting to unpruned grid for atomic number  53.
 Defaulting to unpruned grid for atomic number  53.
 Defaulting to unpruned grid for atomic number  53.
 Defaulting to unpruned grid for atomic number  53.
 Defaulting to unpruned grid for atomic number  53.
 Defaulting to unpruned grid for atomic number  53.
 Defaulting to unpruned grid for atomic number  53.
 Defaulting to unpruned grid for atomic number  53.
 Defaulting to unpruned grid for atomic number  53.
 Defaulting to unpruned grid for atomic number  53.
 Defaulting to unpruned grid for atomic number  53.
 Defaulting to unpruned grid for atomic number  53.
 Defaulting to unpruned grid for atomic number  53.
 Defaulting to unpruned grid for atomic number  53.
 Defaulting to unpruned grid for atomic number  53.
 Defaulting to unpruned grid for atomic number  53.
 Inv3:  Mode=1 IEnd=   479839827.
 Iteration    1 A*A^-1 deviation from unit magnitude is 4.11D-15 for  11788.
 Iteration    1 A*A^-1 deviation from orthogonality  is 3.20D-15 for  10196   9392.
 Iteration    1 A^-1*A deviation from unit magnitude is 4.22D-15 for  12226.
 Iteration    1 A^-1*A deviation from orthogonality  is 9.61D-15 for   7957   7930.
 E= -6139.34521810032    
 DIIS: error= 1.61D-02 at cycle   1 NSaved=   1.
 NSaved= 1 IEnMin= 1 EnMin= -6139.34521810032     IErMin= 1 ErrMin= 1.61D-02
 ErrMax= 1.61D-02  0.00D+00 EMaxC= 1.00D-01 BMatC= 3.28D+00 BMatP= 3.28D+00
 IDIUse=3 WtCom= 8.39D-01 WtEn= 1.61D-01
 Coeff-Com:  0.100D+01
 Coeff-En:   0.100D+01
 Coeff:      0.100D+01
 Gap=     0.321 Goal=   None    Shift=    0.000
 GapD=    0.321 DampG=1.000 DampE=0.500 DampFc=0.5000 IDamp=-1.
 Damping current iteration by 5.00D-01
 RMSDP=2.45D-03 MaxDP=1.58D+00              OVMax= 2.43D-01

 Cycle   2  Pass 1  IDiag  1:
 RMSU=  1.21D-03    CP:  1.07D+00
 E= -6140.21249126781     Delta-E=       -0.867273167489 Rises=F Damp=T
 DIIS: error= 5.75D-03 at cycle   2 NSaved=   2.
 NSaved= 2 IEnMin= 2 EnMin= -6140.21249126781     IErMin= 2 ErrMin= 5.75D-03
 ErrMax= 5.75D-03  0.00D+00 EMaxC= 1.00D-01 BMatC= 4.19D-01 BMatP= 3.28D+00
 IDIUse=3 WtCom= 9.42D-01 WtEn= 5.75D-02
 Coeff-Com:  0.160D+00 0.840D+00
 Coeff-En:   0.281D+00 0.719D+00
 Coeff:      0.167D+00 0.833D+00
 Gap=     0.187 Goal=   None    Shift=    0.000
 RMSDP=1.03D-03 MaxDP=5.48D-01 DE=-8.67D-01 OVMax= 2.41D-01

 Cycle   3  Pass 1  IDiag  1:
 RMSU=  9.11D-04    CP:  1.06D+00  6.07D-01
 E= -6141.57815031543     Delta-E=       -1.365659047620 Rises=F Damp=F
 DIIS: error= 9.22D-03 at cycle   3 NSaved=   3.
 NSaved= 3 IEnMin= 3 EnMin= -6141.57815031543     IErMin= 2 ErrMin= 5.75D-03
 ErrMax= 9.22D-03  0.00D+00 EMaxC= 1.00D-01 BMatC= 4.91D-01 BMatP= 4.19D-01
 IDIUse=3 WtCom= 9.43D-02 WtEn= 9.06D-01
 Coeff-Com:  0.985D-02 0.521D+00 0.470D+00
 Coeff-En:   0.000D+00 0.000D+00 0.100D+01
 Coeff:      0.929D-03 0.491D-01 0.950D+00
 Gap=     0.234 Goal=   None    Shift=    0.000
 RMSDP=1.56D-03 MaxDP=1.03D+00 DE=-1.37D+00 OVMax= 2.31D-01

 Cycle   4  Pass 1  IDiag  1:
 RMSU=  8.19D-04    CP:  1.02D+00  8.88D-01 -4.02D-01
 E= -6139.84204941332     Delta-E=        1.736100902115 Rises=F Damp=F
 DIIS: error= 2.05D-02 at cycle   4 NSaved=   4.
 NSaved= 4 IEnMin= 3 EnMin= -6141.57815031543     IErMin= 2 ErrMin= 5.75D-03
 ErrMax= 2.05D-02  0.00D+00 EMaxC= 1.00D-01 BMatC= 2.67D+00 BMatP= 4.19D-01
 IDIUse=2 WtCom= 0.00D+00 WtEn= 1.00D+00
 Coeff-En:   0.000D+00 0.000D+00 0.778D+00 0.222D+00
 Coeff:      0.000D+00 0.000D+00 0.778D+00 0.222D+00
 Gap=     0.161 Goal=   None    Shift=    0.000
 RMSDP=8.79D-04 MaxDP=1.02D+00 DE= 1.74D+00 OVMax= 1.57D-01

 Cycle   5  Pass 1  IDiag  1:
 RMSU=  2.77D-04    CP:  1.02D+00  6.04D-01  1.61D-01  3.15D-01
 E= -6141.86653352220     Delta-E=       -2.024484108886 Rises=F Damp=F
 DIIS: error= 5.05D-03 at cycle   5 NSaved=   5.
 NSaved= 5 IEnMin= 5 EnMin= -6141.86653352220     IErMin= 5 ErrMin= 5.05D-03
 ErrMax= 5.05D-03  0.00D+00 EMaxC= 1.00D-01 BMatC= 1.65D-01 BMatP= 4.19D-01
 IDIUse=3 WtCom= 9.49D-01 WtEn= 5.05D-02
 Coeff-Com:  0.619D-02 0.502D-02 0.333D+00-0.266D-01 0.682D+00
 Coeff-En:   0.000D+00 0.000D+00 0.293D+00 0.000D+00 0.707D+00
 Coeff:      0.588D-02 0.476D-02 0.331D+00-0.253D-01 0.683D+00
 Gap=     0.114 Goal=   None    Shift=    0.000
 RMSDP=2.39D-04 MaxDP=9.68D-02 DE=-2.02D+00 OVMax= 4.80D-02

 Cycle   6  Pass 1  IDiag  1:
 RMSU=  7.92D-05    CP:  1.02D+00  5.76D-01  3.75D-01  1.92D-01  8.90D-01
 E= -6141.99787338613     Delta-E=       -0.131339863929 Rises=F Damp=F
 DIIS: error= 8.81D-04 at cycle   6 NSaved=   6.
 NSaved= 6 IEnMin= 6 EnMin= -6141.99787338613     IErMin= 6 ErrMin= 8.81D-04
 ErrMax= 8.81D-04  0.00D+00 EMaxC= 1.00D-01 BMatC= 6.48D-03 BMatP= 1.65D-01
 IDIUse=3 WtCom= 9.91D-01 WtEn= 8.81D-03
 Coeff-Com: -0.727D-04 0.639D-03 0.162D+00-0.511D-01 0.478D+00 0.410D+00
 Coeff-En:   0.000D+00 0.000D+00 0.000D+00 0.000D+00 0.000D+00 0.100D+01
 Coeff:     -0.720D-04 0.633D-03 0.160D+00-0.507D-01 0.474D+00 0.416D+00
 Gap=     0.112 Goal=   None    Shift=    0.000
 RMSDP=4.79D-05 MaxDP=2.38D-02 DE=-1.31D-01 OVMax= 1.33D-02

 Cycle   7  Pass 1  IDiag  1:
 RMSU=  2.67D-05    CP:  1.03D+00  5.80D-01  3.94D-01  1.72D-01  9.09D-01
                    CP:  6.06D-01
 E= -6142.00391604527     Delta-E=       -0.006042659141 Rises=F Damp=F
 DIIS: error= 2.29D-04 at cycle   7 NSaved=   7.
 NSaved= 7 IEnMin= 7 EnMin= -6142.00391604527     IErMin= 7 ErrMin= 2.29D-04
 ErrMax= 2.29D-04  0.00D+00 EMaxC= 1.00D-01 BMatC= 2.40D-04 BMatP= 6.48D-03
 IDIUse=3 WtCom= 9.98D-01 WtEn= 2.29D-03
 Coeff-Com: -0.375D-03 0.188D-02 0.705D-01-0.281D-01 0.221D+00 0.228D+00
 Coeff-Com:  0.507D+00
 Coeff-En:   0.000D+00 0.000D+00 0.000D+00 0.000D+00 0.000D+00 0.000D+00
 Coeff-En:   0.100D+01
 Coeff:     -0.374D-03 0.188D-02 0.703D-01-0.280D-01 0.220D+00 0.228D+00
 Coeff:      0.509D+00
 Gap=     0.112 Goal=   None    Shift=    0.000
 RMSDP=8.62D-06 MaxDP=3.68D-03 DE=-6.04D-03 OVMax= 2.60D-03

 Cycle   8  Pass 1  IDiag  1:
 RMSU=  7.29D-06    CP:  1.03D+00  5.80D-01  3.96D-01  1.73D-01  9.06D-01
                    CP:  5.96D-01  8.46D-01
 E= -6142.00409358398     Delta-E=       -0.000177538710 Rises=F Damp=F
 DIIS: error= 5.74D-05 at cycle   8 NSaved=   8.
 NSaved= 8 IEnMin= 8 EnMin= -6142.00409358398     IErMin= 8 ErrMin= 5.74D-05
 ErrMax= 5.74D-05  0.00D+00 EMaxC= 1.00D-01 BMatC= 2.93D-05 BMatP= 2.40D-04
 IDIUse=1 WtCom= 1.00D+00 WtEn= 0.00D+00
 Coeff-Com: -0.583D-05 0.255D-03 0.167D-01-0.773D-02 0.509D-01 0.618D-01
 Coeff-Com:  0.279D+00 0.599D+00
 Coeff:     -0.583D-05 0.255D-03 0.167D-01-0.773D-02 0.509D-01 0.618D-01
 Coeff:      0.279D+00 0.599D+00
 Gap=     0.112 Goal=   None    Shift=    0.000
 RMSDP=3.55D-06 MaxDP=1.57D-03 DE=-1.78D-04 OVMax= 1.20D-03

 Cycle   9  Pass 1  IDiag  1:
 RMSU=  2.37D-06    CP:  1.03D+00  5.80D-01  3.98D-01  1.71D-01  9.06D-01
                    CP:  5.97D-01  8.89D-01  8.79D-01
 E= -6142.00411664265     Delta-E=       -0.000023058663 Rises=F Damp=F
 DIIS: error= 2.09D-05 at cycle   9 NSaved=   9.
 NSaved= 9 IEnMin= 9 EnMin= -6142.00411664265     IErMin= 9 ErrMin= 2.09D-05
 ErrMax= 2.09D-05  0.00D+00 EMaxC= 1.00D-01 BMatC= 5.09D-06 BMatP= 2.93D-05
 IDIUse=1 WtCom= 1.00D+00 WtEn= 0.00D+00
 Coeff-Com:  0.866D-04-0.351D-03 0.205D-02-0.106D-02 0.404D-02 0.979D-02
 Coeff-Com:  0.108D+00 0.372D+00 0.505D+00
 Coeff:      0.866D-04-0.351D-03 0.205D-02-0.106D-02 0.404D-02 0.979D-02
 Coeff:      0.108D+00 0.372D+00 0.505D+00
 Gap=     0.112 Goal=   None    Shift=    0.000
 RMSDP=1.20D-06 MaxDP=5.92D-04 DE=-2.31D-05 OVMax= 3.66D-04

 Cycle  10  Pass 1  IDiag  1:
 RMSU=  8.43D-07    CP:  1.03D+00  5.80D-01  3.97D-01  1.71D-01  9.06D-01
                    CP:  6.00D-01  8.82D-01  8.57D-01  7.75D-01
 E= -6142.00412092061     Delta-E=       -0.000004277961 Rises=F Damp=F
 DIIS: error= 8.10D-06 at cycle  10 NSaved=  10.
 NSaved=10 IEnMin=10 EnMin= -6142.00412092061     IErMin=10 ErrMin= 8.10D-06
 ErrMax= 8.10D-06  0.00D+00 EMaxC= 1.00D-01 BMatC= 5.34D-07 BMatP= 5.09D-06
 IDIUse=1 WtCom= 1.00D+00 WtEn= 0.00D+00
 Coeff-Com:  0.445D-04-0.225D-03-0.143D-03-0.101D-04-0.164D-02 0.820D-03
 Coeff-Com:  0.388D-01 0.166D+00 0.310D+00 0.486D+00
 Coeff:      0.445D-04-0.225D-03-0.143D-03-0.101D-04-0.164D-02 0.820D-03
 Coeff:      0.388D-01 0.166D+00 0.310D+00 0.486D+00
 Gap=     0.112 Goal=   None    Shift=    0.000
 RMSDP=4.39D-07 MaxDP=2.48D-04 DE=-4.28D-06 OVMax= 1.27D-04

 Cycle  11  Pass 1  IDiag  1:
 RMSU=  2.79D-07    CP:  1.03D+00  5.80D-01  3.98D-01  1.71D-01  9.06D-01
                    CP:  6.00D-01  8.88D-01  8.68D-01  7.73D-01  7.34D-01
 E= -6142.00412134240     Delta-E=       -0.000000421791 Rises=F Damp=F
 DIIS: error= 2.77D-06 at cycle  11 NSaved=  11.
 NSaved=11 IEnMin=11 EnMin= -6142.00412134240     IErMin=11 ErrMin= 2.77D-06
 ErrMax= 2.77D-06  0.00D+00 EMaxC= 1.00D-01 BMatC= 7.73D-08 BMatP= 5.34D-07
 IDIUse=1 WtCom= 1.00D+00 WtEn= 0.00D+00
 Coeff-Com:  0.147D-04-0.901D-04-0.388D-03 0.114D-03-0.161D-02-0.548D-03
 Coeff-Com:  0.130D-01 0.657D-01 0.144D+00 0.314D+00 0.465D+00
 Coeff:      0.147D-04-0.901D-04-0.388D-03 0.114D-03-0.161D-02-0.548D-03
 Coeff:      0.130D-01 0.657D-01 0.144D+00 0.314D+00 0.465D+00
 Gap=     0.112 Goal=   None    Shift=    0.000
 RMSDP=1.75D-07 MaxDP=6.31D-05 DE=-4.22D-07 OVMax= 6.74D-05

 Cycle  12  Pass 1  IDiag  1:
 RMSU=  1.30D-07    CP:  1.03D+00  5.80D-01  3.98D-01  1.71D-01  9.06D-01
                    CP:  6.01D-01  8.90D-01  8.74D-01  7.77D-01  7.30D-01
                    CP:  8.11D-01
 E= -6142.00412141049     Delta-E=       -0.000000068088 Rises=F Damp=F
 DIIS: error= 8.82D-07 at cycle  12 NSaved=  12.
 NSaved=12 IEnMin=12 EnMin= -6142.00412141049     IErMin=12 ErrMin= 8.82D-07
 ErrMax= 8.82D-07  0.00D+00 EMaxC= 1.00D-01 BMatC= 9.24D-09 BMatP= 7.73D-08
 IDIUse=1 WtCom= 1.00D+00 WtEn= 0.00D+00
 Coeff-Com: -0.760D-06-0.986D-05-0.264D-03 0.788D-04-0.820D-03-0.461D-03
 Coeff-Com:  0.199D-02 0.146D-01 0.397D-01 0.110D+00 0.278D+00 0.556D+00
 Coeff:     -0.760D-06-0.986D-05-0.264D-03 0.788D-04-0.820D-03-0.461D-03
 Coeff:      0.199D-02 0.146D-01 0.397D-01 0.110D+00 0.278D+00 0.556D+00
 Gap=     0.112 Goal=   None    Shift=    0.000
 RMSDP=9.10D-08 MaxDP=4.04D-05 DE=-6.81D-08 OVMax= 2.38D-05

 Cycle  13  Pass 1  IDiag  1:
 RMSU=  4.47D-08    CP:  1.03D+00  5.80D-01  3.98D-01  1.71D-01  9.06D-01
                    CP:  6.01D-01  8.89D-01  8.72D-01  7.72D-01  7.48D-01
                    CP:  8.62D-01  7.40D-01
 E= -6142.00412141789     Delta-E=       -0.000000007403 Rises=F Damp=F
 DIIS: error= 3.37D-07 at cycle  13 NSaved=  13.
 NSaved=13 IEnMin=13 EnMin= -6142.00412141789     IErMin=13 ErrMin= 3.37D-07
 ErrMax= 3.37D-07  0.00D+00 EMaxC= 1.00D-01 BMatC= 1.73D-09 BMatP= 9.24D-09
 IDIUse=1 WtCom= 1.00D+00 WtEn= 0.00D+00
 Coeff-Com: -0.387D-05 0.903D-05-0.976D-04 0.288D-04-0.217D-03-0.145D-03
 Coeff-Com: -0.878D-03-0.199D-02-0.240D-03 0.134D-01 0.916D-01 0.349D+00
 Coeff-Com:  0.550D+00
 Coeff:     -0.387D-05 0.903D-05-0.976D-04 0.288D-04-0.217D-03-0.145D-03
 Coeff:     -0.878D-03-0.199D-02-0.240D-03 0.134D-01 0.916D-01 0.349D+00
 Coeff:      0.550D+00
 Gap=     0.112 Goal=   None    Shift=    0.000
 RMSDP=2.53D-08 MaxDP=8.57D-06 DE=-7.40D-09 OVMax= 1.00D-05

 Cycle  14  Pass 1  IDiag  1:
 RMSU=  1.74D-08    CP:  1.03D+00  5.80D-01  3.98D-01  1.71D-01  9.06D-01
                    CP:  6.01D-01  8.89D-01  8.72D-01  7.75D-01  7.50D-01
                    CP:  8.76D-01  7.98D-01  8.41D-01
 E= -6142.00412142017     Delta-E=       -0.000000002281 Rises=F Damp=F
 DIIS: error= 1.57D-07 at cycle  14 NSaved=  14.
 NSaved=14 IEnMin=14 EnMin= -6142.00412142017     IErMin=14 ErrMin= 1.57D-07
 ErrMax= 1.57D-07  0.00D+00 EMaxC= 1.00D-01 BMatC= 2.02D-10 BMatP= 1.73D-09
 IDIUse=1 WtCom= 1.00D+00 WtEn= 0.00D+00
 Coeff-Com: -0.242D-05 0.719D-05-0.227D-04 0.531D-05-0.144D-04-0.118D-04
 Coeff-Com: -0.736D-03-0.312D-02-0.587D-02-0.783D-02 0.137D-01 0.125D+00
 Coeff-Com:  0.326D+00 0.553D+00
 Coeff:     -0.242D-05 0.719D-05-0.227D-04 0.531D-05-0.144D-04-0.118D-04
 Coeff:     -0.736D-03-0.312D-02-0.587D-02-0.783D-02 0.137D-01 0.125D+00
 Coeff:      0.326D+00 0.553D+00
 Gap=     0.112 Goal=   None    Shift=    0.000
 RMSDP=1.10D-08 MaxDP=5.66D-06 DE=-2.28D-09 OVMax= 3.43D-06

 Cycle  15  Pass 1  IDiag  1:
 RMSU=  5.75D-09    CP:  1.03D+00  5.80D-01  3.98D-01  1.71D-01  9.06D-01
                    CP:  6.01D-01  8.90D-01  8.72D-01  7.75D-01  7.50D-01
                    CP:  8.81D-01  8.19D-01  8.68D-01  8.01D-01
 E= -6142.00412142076     Delta-E=       -0.000000000589 Rises=F Damp=F
 DIIS: error= 3.32D-08 at cycle  15 NSaved=  15.
 NSaved=15 IEnMin=15 EnMin= -6142.00412142076     IErMin=15 ErrMin= 3.32D-08
 ErrMax= 3.32D-08  0.00D+00 EMaxC= 1.00D-01 BMatC= 2.79D-11 BMatP= 2.02D-10
 IDIUse=1 WtCom= 1.00D+00 WtEn= 0.00D+00
 Coeff-Com: -0.788D-06 0.260D-05-0.547D-06-0.430D-06 0.178D-04 0.997D-05
 Coeff-Com: -0.292D-03-0.146D-02-0.334D-02-0.619D-02-0.525D-02 0.210D-01
 Coeff-Com:  0.113D+00 0.328D+00 0.555D+00
 Coeff:     -0.788D-06 0.260D-05-0.547D-06-0.430D-06 0.178D-04 0.997D-05
 Coeff:     -0.292D-03-0.146D-02-0.334D-02-0.619D-02-0.525D-02 0.210D-01
 Coeff:      0.113D+00 0.328D+00 0.555D+00
 Gap=     0.112 Goal=   None    Shift=    0.000
 RMSDP=3.11D-09 MaxDP=1.26D-06 DE=-5.89D-10 OVMax= 1.45D-06

 Cycle  16  Pass 1  IDiag  1:
 RMSU=  2.50D-09    CP:  1.03D+00  5.80D-01  3.98D-01  1.71D-01  9.06D-01
                    CP:  6.01D-01  8.90D-01  8.72D-01  7.75D-01  7.50D-01
                    CP:  8.84D-01  8.24D-01  8.86D-01  8.34D-01  9.16D-01
 E= -6142.00412142043     Delta-E=        0.000000000331 Rises=F Damp=F
 DIIS: error= 2.25D-08 at cycle  16 NSaved=  16.
 NSaved=16 IEnMin=15 EnMin= -6142.00412142076     IErMin=16 ErrMin= 2.25D-08
 ErrMax= 2.25D-08  0.00D+00 EMaxC= 1.00D-01 BMatC= 5.65D-12 BMatP= 2.79D-11
 IDIUse=1 WtCom= 1.00D+00 WtEn= 0.00D+00
 Coeff-Com: -0.119D-06 0.573D-06 0.340D-05-0.122D-05 0.140D-04 0.837D-05
 Coeff-Com: -0.710D-04-0.437D-03-0.122D-02-0.260D-02-0.509D-02-0.541D-02
 Coeff-Com:  0.236D-01 0.126D+00 0.354D+00 0.511D+00
 Coeff:     -0.119D-06 0.573D-06 0.340D-05-0.122D-05 0.140D-04 0.837D-05
 Coeff:     -0.710D-04-0.437D-03-0.122D-02-0.260D-02-0.509D-02-0.541D-02
 Coeff:      0.236D-01 0.126D+00 0.354D+00 0.511D+00
 Gap=     0.112 Goal=   None    Shift=    0.000
 RMSDP=1.39D-09 MaxDP=5.41D-07 DE= 3.31D-10 OVMax= 7.49D-07

 Error on total polarization charges =  0.09979
 SCF Done:  E(RB3LYP) =  -6142.00412142     A.U. after   16 cycles
            NFock= 16  Conv=0.14D-08     -V/T= 2.0356
 KE= 5.931108407383D+03 PE=-6.572677027320D+04 EE= 2.795022780989D+04
 SMD-CDS (non-electrostatic) energy       (kcal/mol) =     -20.19
 (included in total energy above)
 Leave Link  502 at Tue Feb 18 09:39:23 2025, MaxMem=  4831838208 cpu:          178423.7 elap:            7463.5
 (Enter /ihome/crc/install/gaussian/c01/avx2/tar/g16/l601.exe)
 Copying SCF densities to generalized density rwf, IOpCl= 0 IROHF=0.
 Hyperfine terms turned off by default for NAtoms > 100.

 **********************************************************************

            Population analysis using the SCF Density.

 **********************************************************************

 Alpha  occ. eigenvalues --  -89.02766 -89.02638 -24.71778 -24.71569 -24.71420
 Alpha  occ. eigenvalues --  -24.71136 -24.71128 -24.71102 -24.70269 -24.69964
 Alpha  occ. eigenvalues --  -19.15792 -19.13590 -19.13219 -19.10446 -19.09066
 Alpha  occ. eigenvalues --  -19.08915 -19.08878 -19.08776 -14.38722 -14.34773
 Alpha  occ. eigenvalues --  -14.33291 -14.32557 -14.31123 -14.28086 -10.42374
 Alpha  occ. eigenvalues --  -10.42222 -10.28993 -10.28174 -10.27182 -10.26821
 Alpha  occ. eigenvalues --  -10.26768 -10.26254 -10.25833 -10.23718 -10.22185
 Alpha  occ. eigenvalues --  -10.21998 -10.21781 -10.21752 -10.21662 -10.21622
 Alpha  occ. eigenvalues --  -10.21454 -10.21449 -10.21138 -10.21054 -10.20915
 Alpha  occ. eigenvalues --  -10.20882 -10.20666 -10.20535 -10.20531 -10.20522
 Alpha  occ. eigenvalues --  -10.20437 -10.20432 -10.20419 -10.20414 -10.20394
 Alpha  occ. eigenvalues --  -10.20250 -10.20246 -10.20202 -10.20044 -10.19360
 Alpha  occ. eigenvalues --  -10.19350 -10.19291 -10.19225 -10.19207 -10.19050
 Alpha  occ. eigenvalues --  -10.19015 -10.19000 -10.18948 -10.18876 -10.18862
 Alpha  occ. eigenvalues --  -10.18705 -10.18608 -10.18537 -10.18536 -10.18499
 Alpha  occ. eigenvalues --  -10.18465 -10.18462 -10.18444 -10.18419 -10.18390
 Alpha  occ. eigenvalues --  -10.18356 -10.18182 -10.18168 -10.18162 -10.18129
 Alpha  occ. eigenvalues --  -10.18128 -10.18105 -10.18074 -10.18037 -10.18034
 Alpha  occ. eigenvalues --  -10.17998 -10.17987 -10.17945 -10.17944 -10.17847
 Alpha  occ. eigenvalues --  -10.17841 -10.17793 -10.17788 -10.17734 -10.17715
 Alpha  occ. eigenvalues --  -10.17711 -10.17696 -10.17648 -10.17628 -10.17493
 Alpha  occ. eigenvalues --  -10.17466 -10.17462 -10.17225 -10.17090 -10.16896
 Alpha  occ. eigenvalues --   -8.07260  -8.07167  -6.83507  -6.03574  -6.03505
 Alpha  occ. eigenvalues --   -6.03496  -6.03471  -6.03394  -6.03371  -4.86172
 Alpha  occ. eigenvalues --   -4.84676  -4.84629  -1.90901  -1.90478  -1.90437
 Alpha  occ. eigenvalues --   -1.89174  -1.89173  -1.32423  -1.32240  -1.24272
 Alpha  occ. eigenvalues --   -1.24065  -1.23407  -1.23210  -1.22971  -1.22837
 Alpha  occ. eigenvalues --   -1.10899  -1.09415  -1.09020  -1.05561  -1.05330
 Alpha  occ. eigenvalues --   -1.04774  -1.01272  -0.99397  -0.98613  -0.98424
 Alpha  occ. eigenvalues --   -0.95340  -0.93941  -0.93488  -0.90074  -0.88516
 Alpha  occ. eigenvalues --   -0.88381  -0.88230  -0.88092  -0.87952  -0.87911
 Alpha  occ. eigenvalues --   -0.85802  -0.85485  -0.83980  -0.83742  -0.83661
 Alpha  occ. eigenvalues --   -0.83134  -0.81457  -0.80609  -0.80209  -0.79331
 Alpha  occ. eigenvalues --   -0.79153  -0.78501  -0.78477  -0.78411  -0.78373
 Alpha  occ. eigenvalues --   -0.78325  -0.78237  -0.78176  -0.76887  -0.76321
 Alpha  occ. eigenvalues --   -0.76186  -0.75766  -0.75321  -0.75051  -0.74649
 Alpha  occ. eigenvalues --   -0.74492  -0.74208  -0.73469  -0.73268  -0.73031
 Alpha  occ. eigenvalues --   -0.72297  -0.72004  -0.71691  -0.70989  -0.70575
 Alpha  occ. eigenvalues --   -0.70472  -0.70227  -0.68766  -0.68055  -0.67538
 Alpha  occ. eigenvalues --   -0.67343  -0.66689  -0.65681  -0.65363  -0.64948
 Alpha  occ. eigenvalues --   -0.64886  -0.64633  -0.63486  -0.63428  -0.63362
 Alpha  occ. eigenvalues --   -0.63260  -0.63194  -0.63148  -0.62786  -0.62645
 Alpha  occ. eigenvalues --   -0.62521  -0.61862  -0.61414  -0.61060  -0.60820
 Alpha  occ. eigenvalues --   -0.60138  -0.60118  -0.59860  -0.59767  -0.59639
 Alpha  occ. eigenvalues --   -0.59443  -0.58937  -0.58660  -0.58147  -0.57663
 Alpha  occ. eigenvalues --   -0.57567  -0.57426  -0.57369  -0.56514  -0.55431
 Alpha  occ. eigenvalues --   -0.55001  -0.54937  -0.54800  -0.54554  -0.54024
 Alpha  occ. eigenvalues --   -0.53672  -0.52885  -0.52793  -0.52619  -0.52568
 Alpha  occ. eigenvalues --   -0.52356  -0.51756  -0.51352  -0.51317  -0.51204
 Alpha  occ. eigenvalues --   -0.51003  -0.50531  -0.50350  -0.50123  -0.49923
 Alpha  occ. eigenvalues --   -0.49807  -0.49763  -0.49460  -0.49052  -0.48767
 Alpha  occ. eigenvalues --   -0.48596  -0.48344  -0.48288  -0.48242  -0.48040
 Alpha  occ. eigenvalues --   -0.48023  -0.47732  -0.47698  -0.47658  -0.47550
 Alpha  occ. eigenvalues --   -0.47490  -0.47183  -0.47027  -0.46904  -0.46784
 Alpha  occ. eigenvalues --   -0.46759  -0.46589  -0.46295  -0.46271  -0.46242
 Alpha  occ. eigenvalues --   -0.46026  -0.45825  -0.45764  -0.45735  -0.45477
 Alpha  occ. eigenvalues --   -0.45445  -0.45353  -0.45191  -0.45067  -0.44781
 Alpha  occ. eigenvalues --   -0.44651  -0.44509  -0.44342  -0.44258  -0.44001
 Alpha  occ. eigenvalues --   -0.43945  -0.43923  -0.43869  -0.43638  -0.43341
 Alpha  occ. eigenvalues --   -0.43259  -0.42993  -0.42942  -0.42835  -0.42740
 Alpha  occ. eigenvalues --   -0.42721  -0.42686  -0.42584  -0.42535  -0.42236
 Alpha  occ. eigenvalues --   -0.42205  -0.41895  -0.41794  -0.41762  -0.41522
 Alpha  occ. eigenvalues --   -0.41492  -0.41420  -0.41189  -0.40865  -0.40787
 Alpha  occ. eigenvalues --   -0.40704  -0.40590  -0.40444  -0.40360  -0.40230
 Alpha  occ. eigenvalues --   -0.40136  -0.39933  -0.39868  -0.39838  -0.39516
 Alpha  occ. eigenvalues --   -0.39380  -0.39101  -0.38934  -0.38815  -0.38545
 Alpha  occ. eigenvalues --   -0.38327  -0.38214  -0.38171  -0.37828  -0.37486
 Alpha  occ. eigenvalues --   -0.37428  -0.37268  -0.37131  -0.37001  -0.36777
 Alpha  occ. eigenvalues --   -0.36709  -0.36585  -0.36527  -0.36266  -0.36220
 Alpha  occ. eigenvalues --   -0.36138  -0.36030  -0.35970  -0.35950  -0.35853
 Alpha  occ. eigenvalues --   -0.35760  -0.35673  -0.35393  -0.34998  -0.34923
 Alpha  occ. eigenvalues --   -0.34735  -0.34694  -0.34430  -0.34304  -0.34254
 Alpha  occ. eigenvalues --   -0.34116  -0.33654  -0.33323  -0.32553  -0.32445
 Alpha  occ. eigenvalues --   -0.32035  -0.31938  -0.31444  -0.31417  -0.31057
 Alpha  occ. eigenvalues --   -0.30957  -0.30586  -0.30186  -0.29911  -0.29796
 Alpha  occ. eigenvalues --   -0.29433  -0.29288  -0.28757  -0.28692  -0.28467
 Alpha  occ. eigenvalues --   -0.28301  -0.28082  -0.27672  -0.27617  -0.27413
 Alpha  occ. eigenvalues --   -0.27178  -0.27144  -0.27019  -0.26921  -0.26655
 Alpha  occ. eigenvalues --   -0.26569  -0.26066  -0.25971  -0.25902  -0.25717
 Alpha  occ. eigenvalues --   -0.25632  -0.25457  -0.25136  -0.24904  -0.24584
 Alpha  occ. eigenvalues --   -0.24532  -0.23893  -0.23773  -0.23702  -0.22952
 Alpha  occ. eigenvalues --   -0.22046  -0.21646  -0.21159
 Alpha virt. eigenvalues --   -0.09957  -0.06946  -0.06824  -0.05950  -0.05556
 Alpha virt. eigenvalues --   -0.05020  -0.04914  -0.03441  -0.03247  -0.03167
 Alpha virt. eigenvalues --   -0.03081  -0.02840  -0.02527  -0.02276  -0.01932
 Alpha virt. eigenvalues --   -0.01655  -0.01496  -0.00841  -0.00679  -0.00040
 Alpha virt. eigenvalues --    0.00083   0.00432   0.00964   0.01258   0.02103
 Alpha virt. eigenvalues --    0.03140   0.03711   0.03825   0.04055   0.04447
 Alpha virt. eigenvalues --    0.04576   0.04832   0.05045   0.05181   0.05511
 Alpha virt. eigenvalues --    0.05604   0.05676   0.05856   0.05981   0.06027
 Alpha virt. eigenvalues --    0.06137   0.06189   0.06529   0.06849   0.06961
 Alpha virt. eigenvalues --    0.07039   0.07137   0.07407   0.07528   0.07663
 Alpha virt. eigenvalues --    0.07902   0.07966   0.08121   0.08321   0.08605
 Alpha virt. eigenvalues --    0.08712   0.08909   0.08938   0.09046   0.09122
 Alpha virt. eigenvalues --    0.09222   0.09334   0.09424   0.09494   0.09626
 Alpha virt. eigenvalues --    0.09688   0.09768   0.10001   0.10038   0.10155
 Alpha virt. eigenvalues --    0.10214   0.10384   0.10469   0.10613   0.10739
 Alpha virt. eigenvalues --    0.10845   0.11017   0.11197   0.11282   0.11359
 Alpha virt. eigenvalues --    0.11409   0.11525   0.11569   0.11693   0.11795
 Alpha virt. eigenvalues --    0.11922   0.12009   0.12200   0.12277   0.12520
 Alpha virt. eigenvalues --    0.12563   0.12774   0.12806   0.12986   0.13058
 Alpha virt. eigenvalues --    0.13204   0.13295   0.13319   0.13462   0.13547
 Alpha virt. eigenvalues --    0.13590   0.13761   0.13795   0.13820   0.13908
 Alpha virt. eigenvalues --    0.14031   0.14116   0.14280   0.14368   0.14436
 Alpha virt. eigenvalues --    0.14636   0.14751   0.14840   0.14890   0.14965
 Alpha virt. eigenvalues --    0.15010   0.15305   0.15336   0.15428   0.15502
 Alpha virt. eigenvalues --    0.15540   0.15692   0.15769   0.15936   0.15987
 Alpha virt. eigenvalues --    0.16157   0.16323   0.16403   0.16596   0.16841
 Alpha virt. eigenvalues --    0.16962   0.17092   0.17339   0.17434   0.17512
 Alpha virt. eigenvalues --    0.17591   0.17856   0.17890   0.17999   0.18103
 Alpha virt. eigenvalues --    0.18254   0.18443   0.18534   0.18619   0.18813
 Alpha virt. eigenvalues --    0.18965   0.19111   0.19139   0.19256   0.19448
 Alpha virt. eigenvalues --    0.19563   0.19643   0.19797   0.19902   0.20089
 Alpha virt. eigenvalues --    0.20166   0.20350   0.20378   0.20419   0.20539
 Alpha virt. eigenvalues --    0.20574   0.20672   0.20726   0.20937   0.20943
 Alpha virt. eigenvalues --    0.20979   0.21031   0.21223   0.21244   0.21295
 Alpha virt. eigenvalues --    0.21431   0.21490   0.21574   0.21753   0.21798
 Alpha virt. eigenvalues --    0.22085   0.22171   0.22254   0.22364   0.22473
 Alpha virt. eigenvalues --    0.22505   0.22755   0.22793   0.22912   0.23040
 Alpha virt. eigenvalues --    0.23086   0.23141   0.23207   0.23290   0.23361
 Alpha virt. eigenvalues --    0.23581   0.23768   0.23783   0.23945   0.23990
 Alpha virt. eigenvalues --    0.24217   0.24332   0.24417   0.24511   0.24613
 Alpha virt. eigenvalues --    0.24745   0.24804   0.24911   0.25061   0.25104
 Alpha virt. eigenvalues --    0.25198   0.25294   0.25369   0.25449   0.25533
 Alpha virt. eigenvalues --    0.25744   0.25769   0.25845   0.25990   0.26126
 Alpha virt. eigenvalues --    0.26291   0.26429   0.26536   0.26629   0.26716
 Alpha virt. eigenvalues --    0.26780   0.26990   0.27076   0.27264   0.27285
 Alpha virt. eigenvalues --    0.27487   0.27556   0.27675   0.27824   0.28008
 Alpha virt. eigenvalues --    0.28128   0.28151   0.28268   0.28319   0.28443
 Alpha virt. eigenvalues --    0.28573   0.28631   0.28787   0.28914   0.29017
 Alpha virt. eigenvalues --    0.29096   0.29113   0.29370   0.29422   0.29476
 Alpha virt. eigenvalues --    0.29573   0.29678   0.29857   0.29954   0.30018
 Alpha virt. eigenvalues --    0.30045   0.30080   0.30200   0.30460   0.30547
 Alpha virt. eigenvalues --    0.30658   0.30675   0.30716   0.30882   0.30917
 Alpha virt. eigenvalues --    0.31151   0.31169   0.31299   0.31382   0.31457
 Alpha virt. eigenvalues --    0.31599   0.31693   0.31838   0.31875   0.31971
 Alpha virt. eigenvalues --    0.32054   0.32238   0.32317   0.32374   0.32525
 Alpha virt. eigenvalues --    0.32678   0.32701   0.32824   0.32886   0.33072
 Alpha virt. eigenvalues --    0.33124   0.33259   0.33371   0.33393   0.33469
 Alpha virt. eigenvalues --    0.33604   0.33712   0.33830   0.33947   0.34021
[...]
 Alpha virt. eigenvalues --    6.05225   6.05395   6.06430   6.06803   6.07244
 Alpha virt. eigenvalues --    6.07628   6.08491   6.09467   6.09686   6.10052
 Alpha virt. eigenvalues --    6.11640   6.11714   6.12299   6.12939   6.13949
 Alpha virt. eigenvalues --    6.15113   6.16560   6.17756   6.18870   6.21819
 Alpha virt. eigenvalues --    6.22976   6.23416   6.23775   6.24196   6.25208
 Alpha virt. eigenvalues --    6.26484   6.28379   6.33195   6.35441   6.36036
 Alpha virt. eigenvalues --    6.38769   6.39479   6.43049   6.43217   6.43327
 Alpha virt. eigenvalues --    6.45230   6.47185   6.47345   6.47405   6.49666
 Alpha virt. eigenvalues --    6.52455   6.53787   6.53925   6.54224   6.55814
 Alpha virt. eigenvalues --    6.56529   6.56835   6.57599   6.59046   6.63256
 Alpha virt. eigenvalues --    6.65645   6.69332   6.69446   6.71192   6.74198
 Alpha virt. eigenvalues --    6.74513   6.76133   6.77014   6.77375   6.77995
 Alpha virt. eigenvalues --    6.78249   6.78876   6.79059   6.80057   6.81091
 Alpha virt. eigenvalues --    6.82692   6.82700   6.83008   6.83143   6.83341
 Alpha virt. eigenvalues --    6.83503   6.84004   6.84371   6.84685   6.85110
 Alpha virt. eigenvalues --    6.85219   6.85461   6.85593   6.85904   6.86109
 Alpha virt. eigenvalues --    6.86290   6.86333   6.86586   6.86686   6.86797
 Alpha virt. eigenvalues --    6.87025   6.87158   6.87512   6.87983   6.88164
 Alpha virt. eigenvalues --    6.88561   6.92132   6.93350   6.94502   6.95017
 Alpha virt. eigenvalues --    6.97291   6.97533   6.97881   6.98528   6.98662
 Alpha virt. eigenvalues --    6.99051   6.99786   7.01353   7.01896   7.02153
 Alpha virt. eigenvalues --    7.03186   7.05121   7.05127   7.06331   7.06730
 Alpha virt. eigenvalues --    7.08019   7.09240   7.10760   7.10801   7.11984
 Alpha virt. eigenvalues --    7.12420   7.12820   7.13383   7.13941   7.17396
 Alpha virt. eigenvalues --    7.18678   7.20163   7.22142   7.25100   7.27004
 Alpha virt. eigenvalues --    7.33804   7.34818   7.36507   7.36595   7.36600
 Alpha virt. eigenvalues --    7.38127   7.40783   7.41561   7.43809   7.43912
 Alpha virt. eigenvalues --    7.46434   7.48551   7.48795   7.49691   7.55214
 Alpha virt. eigenvalues --    7.57609   7.59198   7.59487   7.59839   7.62907
 Alpha virt. eigenvalues --    7.62974   7.64470   7.66866   7.68873   7.88275
 Alpha virt. eigenvalues --    7.90106   7.98059   8.05564   8.26874   8.29949
 Alpha virt. eigenvalues --    8.30199   8.31210   8.32270   8.33448   8.38095
 Alpha virt. eigenvalues --    8.42843   8.45201   8.47073   8.49427   8.50655
 Alpha virt. eigenvalues --    8.57658   8.57762   8.58899   8.60282   8.67550
 Alpha virt. eigenvalues --    8.69494   8.75310   8.76481   8.77019   8.78463
 Alpha virt. eigenvalues --    8.78841   8.79495   8.88987   8.91128   8.94897
 Alpha virt. eigenvalues --    8.96387   8.98229   9.00175   9.01635   9.04399
 Alpha virt. eigenvalues --    9.04815   9.05483   9.06936   9.09697   9.12992
 Alpha virt. eigenvalues --    9.17024   9.20047   9.21396   9.52723   9.55640
 Alpha virt. eigenvalues --    9.73491   9.84245  10.16383  10.18509  22.57266
 Alpha virt. eigenvalues --   22.61890  22.66149  22.71212  22.71960  22.81278
 Alpha virt. eigenvalues --   22.84603  22.88547  22.88732  22.90136  22.90759
 Alpha virt. eigenvalues --   22.92509  22.93612  22.96672  23.01564  23.03682
 Alpha virt. eigenvalues --   23.04652  23.06540  23.07194  23.08306  23.09060
 Alpha virt. eigenvalues --   23.09147  23.10300  23.10736  23.11326  23.12785
 Alpha virt. eigenvalues --   23.13196  23.13564  23.14089  23.14454  23.15886
 Alpha virt. eigenvalues --   23.17588  23.18170  23.18608  23.19245  23.20247
 Alpha virt. eigenvalues --   23.20772  23.21632  23.21655  23.22523  23.23510
 Alpha virt. eigenvalues --   23.23983  23.24998  23.25905  23.26432  23.27143
 Alpha virt. eigenvalues --   23.27661  23.27810  23.28641  23.30591  23.30682
 Alpha virt. eigenvalues --   23.30947  23.31909  23.33338  23.33740  23.34185
 Alpha virt. eigenvalues --   23.34636  23.36607  23.37656  23.39912  23.42267
 Alpha virt. eigenvalues --   23.43442  23.43813  23.44103  23.45702  23.46521
 Alpha virt. eigenvalues --   23.46853  23.51072  23.54204  23.55335  23.57039
 Alpha virt. eigenvalues --   23.57924  23.60410  23.62700  23.70686  23.73487
 Alpha virt. eigenvalues --   23.79484  23.81352  23.91386  23.93287  24.12810
 Alpha virt. eigenvalues --   24.13141  24.15533  24.16722  24.22248  24.26940
 Alpha virt. eigenvalues --   24.34282  24.49199  32.49252  32.53233  32.82907
 Alpha virt. eigenvalues --   32.98306  33.24968  33.25772  34.69451  34.71256
 Alpha virt. eigenvalues --   35.04983  43.16294  43.93016  43.94208  44.00899
 Alpha virt. eigenvalues --   44.14524  44.24980  44.28090  44.31563  44.44363
 Alpha virt. eigenvalues --   57.10302  57.21381  57.23142  57.38706  57.45709
 Alpha virt. eigenvalues --   57.50867  57.60278  57.63508 117.92249
          Condensed to atoms (all electrons):
 Mulliken charges:
               1
     1  C    0.092784
     2  C    0.027627
     3  C   -0.011957
     4  C   -0.128031
     5  C    0.286230
     6  N   -0.316923
     7  H    0.142516
     8  C   -0.000196
     9  C    0.112137
    10  C   -0.137751
    11  C   -0.164124
    12  C   -0.152979
    13  H    0.144573
    14  H    0.146296
    15  H    0.136346
    16  C    0.339837
    17  C    0.052429
    18  C   -0.238792
    19  C   -0.266194
    20  C   -0.166581
    21  H    0.145816
    22  C   -0.176440
    23  H    0.231949
    24  C   -0.137039
    25  H    0.151556
    26  H    0.149741
    27  H    0.156577
    28  F   -0.230144
    29  C   -0.292531
    30  H    0.112915
    31  H    0.111141
    32  H    0.104479
    33  C   -0.033301
    34  C    0.001378
    35  C   -0.017636
    36  H    0.117728
    37  H    0.094546
    38  C   -0.010721
    39  H    0.069352
    40  H    0.104280
    41  H    0.100531
    42  H    0.100583
    43  H    0.088121
    44  H    0.108421
    45  N    0.036810
    46  O   -0.338885
    47  H    0.166080
    48  C   -0.124206
    49  C   -0.201981
    50  C   -0.068522
    51  C   -0.066624
    52  C   -0.125517
    53  C   -0.148708
    54  H    0.153274
    55  H    0.159319
    56  C    0.129779
    57  C   -0.082730
    58  H    0.146162
    59  H    0.152250
    60  C   -0.075640
    61  C   -0.080637
    62  H    0.144713
    63  C    0.102872
    64  C   -0.119061
    65  C   -0.053025
    66  C   -0.205991
    67  C   -0.025483
    68  C   -0.191071
    69  C   -0.143100
    70  C   -0.148981
    71  C   -0.136556
    72  H    0.157734
    73  H    0.150865
    74  C   -0.139078
    75  H    0.146920
    76  H    0.154074
    77  H    0.152425
    78  S    0.843804
    79  O   -0.514707
    80  O   -0.513480
    81  S    0.893644
    82  O   -0.506758
    83  O   -0.559060
    84  N   -0.469520
    85  C    0.076038
    86  C    0.141108
    87  C    0.154821
    88  C    0.313100
    89  C   -0.135153
    90  C   -0.206540
    91  C   -0.204050
    92  C   -0.066466
    93  C   -0.125738
    94  H    0.159115
    95  C   -0.157808
    96  H    0.150831
    97  H    0.156518
    98  H    0.152568
    99  C   -0.084093
   100  C   -0.149333
   101  C   -0.172674
   102  C   -0.107227
   103  C   -0.133305
   104  H    0.160329
   105  C   -0.137065
   106  H    0.159059
   107  H    0.157965
   108  H    0.158320
   109  C    0.567576
   110  F   -0.191953
   111  F   -0.191887
   112  F   -0.186937
   113  C    0.607475
   114  F   -0.192670
   115  F   -0.193327
   116  F   -0.194738
   117  I   -0.013280
   118  N   -0.347400
   119  C    0.282186
   120  C   -0.135653
   121  C   -0.128214
   122  C    0.219764
   123  O   -0.335944
   124  O   -0.330900
   125  H    0.111472
   126  H    0.104555
   127  H    0.102923
   128  H    0.091778
   129  C    0.149722
   130  C   -0.216796
   131  C    0.025986
   132  C   -0.169846
   133  C    0.214786
   134  N   -0.322016
   135  H    0.134745
   136  C   -0.095847
   137  C    0.245901
   138  C   -0.270407
   139  C   -0.212859
   140  C   -0.149345
   141  H    0.195123
   142  H    0.180384
   143  H    0.145637
   144  C    0.343600
   145  C    0.021641
   146  C   -0.221153
   147  C   -0.236280
   148  C   -0.153588
   149  H    0.145330
   150  C   -0.148168
   151  H    0.185264
   152  C   -0.165977
   153  H    0.150020
   154  H    0.153228
   155  H    0.153116
   156  F   -0.222230
   157  C   -0.269544
   158  H    0.089887
   159  H    0.114750
   160  H    0.109430
   161  C   -0.027054
   162  C   -0.064436
   163  C   -0.002557
   164  H    0.085479
   165  H    0.082751
   166  C    0.001051
   167  H    0.097215
   168  H    0.086232
   169  H    0.068948
   170  H    0.103682
   171  H    0.066759
   172  H    0.102157
   173  N   -0.140312
   174  O   -0.337124
   175  H    0.147738
   176  H    0.319873
 Sum of Mulliken charges =  -0.00000
 Mulliken charges with hydrogens summed into heavy atoms:
               1
     1  C    0.092784
     2  C    0.193707
     3  C   -0.011957
     4  C    0.014485
     5  C    0.286230
     6  N   -0.316923
     8  C   -0.000196
     9  C    0.112137
    10  C    0.006822
    11  C   -0.027777
    12  C   -0.006683
    16  C    0.339837
    17  C    0.052429
    18  C   -0.092976
    19  C   -0.034245
    20  C   -0.015025
    22  C   -0.026698
    24  C    0.019538
    28  F   -0.230144
    29  C    0.036004
    33  C    0.178973
    34  C    0.175010
    35  C    0.183478
    38  C    0.185822
    45  N    0.036810
    46  O   -0.338885
    48  C    0.029068
    49  C   -0.042662
    50  C   -0.068522
    51  C   -0.066624
    52  C    0.020645
    53  C    0.003542
    56  C    0.129779
    57  C    0.061984
    60  C   -0.075640
    61  C   -0.080637
    63  C    0.102872
    64  C   -0.119061
    65  C   -0.053025
    66  C   -0.205991
    67  C   -0.025483
    68  C   -0.033337
    69  C    0.007765
    70  C   -0.002060
    71  C    0.017518
    74  C    0.013347
    78  S    0.843804
    79  O   -0.514707
    80  O   -0.513480
    81  S    0.893644
    82  O   -0.506758
    83  O   -0.559060
    84  N   -0.469520
    85  C    0.076038
    86  C    0.141108
    87  C    0.154821
    88  C    0.313100
    89  C   -0.135153
    90  C   -0.206540
    91  C   -0.044936
    92  C    0.084366
    93  C    0.030780
    95  C   -0.005240
    99  C   -0.084093
   100  C   -0.149333
   101  C   -0.012345
   102  C    0.051832
   103  C    0.024661
   105  C    0.021255
   109  C    0.567576
   110  F   -0.191953
   111  F   -0.191887
   112  F   -0.186937
   113  C    0.607475
   114  F   -0.192670
   115  F   -0.193327
   116  F   -0.194738
   117  I   -0.013280
   118  N   -0.347400
   119  C    0.282186
   120  C    0.080373
   121  C    0.066488
   122  C    0.219764
   123  O   -0.335944
   124  O   -0.011028
   129  C    0.149722
   130  C   -0.069058
   131  C    0.025986
   132  C   -0.035101
   133  C    0.214786
   134  N   -0.322016
   136  C   -0.095847
   137  C    0.245901
   138  C   -0.075284
   139  C   -0.067222
   140  C    0.031038
   144  C    0.343600
   145  C    0.021641
   146  C   -0.075823
   147  C   -0.051015
   148  C   -0.003569
   150  C    0.005060
   152  C   -0.012861
   156  F   -0.222230
   157  C    0.044522
   161  C    0.141176
   162  C    0.119012
   163  C    0.170073
   166  C    0.169968
   173  N   -0.140312
   174  O   -0.337124
 Electronic spatial extent (au):  <R**2>=         177891.5136
 Charge=             -0.0000 electrons
 Dipole moment (field-independent basis, Debye):
    X=             -6.3177    Y=            -31.5357    Z=              0.7516  Tot=             32.1711
 Quadrupole moment (field-independent basis, Debye-Ang):
   XX=           -652.0609   YY=           -379.0736   ZZ=           -649.0290
   XY=            -44.0899   XZ=             11.5365   YZ=            -32.4038
 Traceless Quadrupole moment (field-independent basis, Debye-Ang):
   XX=            -92.0064   YY=            180.9809   ZZ=            -88.9745
   XY=            -44.0899   XZ=             11.5365   YZ=            -32.4038
 Octapole moment (field-independent basis, Debye-Ang**2):
  XXX=          -2375.8704  YYY=           1054.3619  ZZZ=          -1035.9390  XYY=          -1137.1565
  XXY=           1423.5678  XXZ=           -280.2454  XZZ=           -994.9779  YZZ=           1075.9451
  YYZ=            390.2238  XYZ=            -31.5177
 Hexadecapole moment (field-independent basis, Debye-Ang**3):
 XXXX=         -41976.9624 YYYY=        -118765.2839 ZZZZ=         -30227.0109 XXXY=            752.2007
 XXXZ=          -2587.4623 YYYX=          -3209.9131 YYYZ=           4882.5892 ZZZX=          -3295.6963
 ZZZY=          15167.4972 XXYY=         -35648.4490 XXZZ=         -13412.1552 YYZZ=         -26407.5253
 XXYZ=           6500.0479 YYXZ=            -84.8614 ZZXY=           -327.6713
 N-N= 2.570342993451D+04 E-N=-6.572677031953D+04  KE= 5.931108407383D+03
 Leave Link  601 at Tue Feb 18 09:39:26 2025, MaxMem=  4831838208 cpu:              30.1 elap:               2.0
 (Enter /ihome/crc/install/gaussian/c01/avx2/tar/g16/l9999.exe)
 Unable to Open any file for archive entry.
 1\1\GINC-SMP-N225\SP\RB3LYP\def2TZVPP\C86H65F8I1N6O8S2\BIM12\18-Feb-20
 25\0\\#p b3lyp def2tzvpp scf=maxcycle=128 nosymm scrf=(smd,solvent=pro
 pylethanoate) empiricaldispersion=gd3bj\\alkyneCF3_R-ax-R_01_iodi_INT4
 \\0,1\C,0,0.369816,-3.624566,0.05838\C,0,1.81485,-3.904305,0.206051\C,
 0,2.632628,-2.67241,0.302907\C,0,2.036813,-1.521688,0.683389\C,0,0.624
 899,-1.565777,1.025443\N,0,-0.178402,-2.556002,0.51715\H,0,2.5929,-0.5
 87597,0.729735\C,0,-0.496004,-4.609511,-0.637013\C,0,-0.282816,-4.9504
 48,-1.989098\C,0,-1.123311,-5.902533,-2.581623\C,0,-2.386707,-6.145231
 ,-0.530104\C,0,-2.160986,-6.489692,-1.861201\H,0,-0.976939,-6.157091,-
 3.632517\H,0,-2.811886,-7.220678,-2.34395\H,0,-3.18727,-6.58924,0.0621
 4\C,0,-1.547427,-5.2109,0.057336\C,0,0.823772,-4.334675,-2.772275\C,0,
 1.612953,-5.138212,-3.609643\C,0,1.121195,-2.96411,-2.679571\C,0,2.681
 994,-4.591508,-4.319415\H,0,1.40109,-6.207257,-3.686552\C,0,2.190305,-
 2.419437,-3.389217\H,0,0.51554,-2.293903,-2.065106\C,0,2.976244,-3.231
 612,-4.208228\H,0,3.291723,-5.234071,-4.957143\H,0,2.393545,-1.351926,
 -3.288147\H,0,3.815008,-2.804813,-4.760751\F,0,-1.724987,-4.905966,1.3
 42603\C,0,4.084433,-2.782806,-0.024137\H,0,4.55717,-3.550861,0.608859\
 H,0,4.200003,-3.105236,-1.071774\H,0,4.602969,-1.826753,0.115809\C,0,-
 1.334753,-0.837453,2.283853\C,0,0.723972,0.438518,2.447259\C,0,-1.2878
 47,-1.007911,3.799495\H,0,-1.80318,-1.694205,1.793749\H,0,-1.878804,0.
 08565,2.037046\C,0,0.668853,0.237941,3.958616\H,0,1.754292,0.527457,2.
 100724\H,0,0.196202,1.362085,2.164767\H,0,-0.766376,-1.952165,4.049266
 \H,0,-2.312162,-1.06187,4.190544\H,0,1.272044,-0.650034,4.229124\H,0,1
 .096753,1.119492,4.452589\N,0,0.040015,-0.678634,1.79899\O,0,-0.653371
 ,0.087713,4.408761\H,0,2.190819,-4.635149,-0.515863\C,0,-0.751222,6.76
 6477,-2.910597\C,0,-0.448033,5.734096,-2.05539\C,0,0.888531,5.525667,-
 1.608729\C,0,1.904342,6.397095,-2.097485\C,0,1.558769,7.46475,-2.97307
 1\C,0,0.258128,7.649669,-3.368161\H,0,-1.780597,6.903809,-3.245381\H,0
 ,-1.239667,5.060466,-1.728308\C,0,1.255674,4.464241,-0.712189\C,0,3.24
 902,6.177438,-1.723123\H,0,2.353235,8.124187,-3.327959\H,0,-0.001436,8
 .467085,-4.042638\C,0,3.609304,5.120531,-0.906979\C,0,2.585524,4.25957
 1,-0.398001\H,0,4.024802,6.846461,-2.100185\C,0,0.142754,3.592749,-0.2
 0086\C,0,-0.010788,2.284599,-0.623943\C,0,-0.823808,4.172536,0.686154\
 C,0,-1.219198,1.56078,-0.350432\C,0,-1.990094,3.428215,1.022244\C,0,-0
 .64478,5.458025,1.268046\C,0,-2.182923,2.147748,0.450395\C,0,-2.952425
 ,3.992672,1.905374\C,0,-1.58405,5.972844,2.129618\H,0,0.256807,6.02809
 1,1.040648\H,0,-3.11751,1.615042,0.638161\C,0,-2.753756,5.238049,2.447
 36\H,0,-3.845023,3.411825,2.146006\H,0,-1.425845,6.954955,2.577817\H,0
 ,-3.491402,5.664082,3.129188\S,0,2.95267,2.824734,0.603805\O,0,2.12700
 2,2.969119,1.771516\O,0,4.359237,2.742252,0.840844\S,0,1.413271,1.5059
 26,-1.388409\O,0,1.733703,2.271857,-2.554799\O,0,1.10608,0.120291,-1.5
 97958\N,0,2.523132,1.57936,-0.271711\C,0,5.006924,4.978277,-0.621304\C
 ,0,6.208497,4.966107,-0.454838\C,0,-1.550422,0.305471,-0.964861\C,0,-1
 .970625,-0.684914,-1.529315\C,0,-2.397748,-1.77512,-2.357991\C,0,-3.41
 006,-2.685034,-1.986542\C,0,-1.815968,-1.903765,-3.629865\C,0,-3.82913
 4,-3.674819,-2.87043\C,0,-2.235371,-2.899763,-4.507308\H,0,-1.033465,-
 1.201828,-3.919939\C,0,-3.246419,-3.78166,-4.133333\H,0,-4.616967,-4.3
 65528,-2.569928\H,0,-1.769903,-2.97993,-5.490966\H,0,-3.582481,-4.5597
 94,-4.820151\C,0,7.617756,4.882541,-0.216143\C,0,8.512683,5.862644,-0.
 69124\C,0,8.127756,3.795801,0.510938\C,0,9.877582,5.751953,-0.444338\C
 ,0,9.494187,3.691118,0.754728\H,0,7.43071,3.041068,0.877004\C,0,10.370
 39,4.665577,0.27884\H,0,10.557482,6.517579,-0.818242\H,0,9.876476,2.84
 084,1.321548\H,0,11.441127,4.583852,0.469717\C,0,7.977477,7.038232,-1.
 467039\F,0,7.10113,7.751924,-0.752181\F,0,7.342661,6.657993,-2.58112\F
 ,0,8.949755,7.874323,-1.838789\C,0,-4.050095,-2.582821,-0.627775\F,0,-
 4.570631,-1.371041,-0.404547\F,0,-3.174627,-2.810505,0.35787\F,0,-5.03
 9429,-3.467001,-0.474292\I,0,1.931568,-4.989933,2.127632\N,0,1.794902,
 -6.318121,4.50342\C,0,2.112058,-7.574085,4.398681\C,0,1.1802,-8.535997
 ,5.10447\C,0,0.229285,-7.582092,5.817567\C,0,0.634284,-6.205963,5.2822
 39\O,0,0.05257,-5.17284,5.484035\O,0,3.138286,-7.959814,3.721423\H,0,0
 .681269,-9.164917,4.350098\H,0,1.753235,-9.211166,5.756198\H,0,0.36160
 1,-7.583592,6.908818\H,0,-0.833868,-7.758585,5.60944\C,0,2.27703,-10.3
 60744,1.737017\C,0,1.574307,-11.44421,1.227909\C,0,1.360994,-12.563926
 ,2.04709\C,0,1.890053,-12.559593,3.331829\C,0,2.606281,-11.431493,3.78
 7024\N,0,2.763473,-10.363281,2.990182\H,0,1.77501,-13.437509,3.964245\
 C,0,2.556628,-9.165217,0.88582\C,0,1.57292,-8.551636,0.080566\C,0,1.94
 3263,-7.558192,-0.833416\C,0,4.238891,-7.679434,-0.098735\C,0,3.266349
 ,-7.130737,-0.930458\H,0,1.168515,-7.098111,-1.449748\H,0,3.539169,-6.
 352557,-1.647076\H,0,5.281425,-7.361782,-0.128915\C,0,3.866319,-8.6810
 55,0.785201\C,0,0.130858,-8.892464,0.237131\C,0,-0.611975,-9.421828,-0
 .823676\C,0,-0.499432,-8.67114,1.469786\C,0,-1.952766,-9.764362,-0.642
 108\H,0,-0.127565,-9.588309,-1.788915\C,0,-1.841329,-9.001491,1.646662
 \H,0,0.072865,-8.226101,2.288401\C,0,-2.568192,-9.560054,0.592873\H,0,
 -2.518716,-10.194474,-1.470659\H,0,-2.322432,-8.819711,2.609616\H,0,-3
 .616739,-9.828546,0.733604\F,0,4.816179,-9.228819,1.549621\C,0,0.59686
 8,-13.743005,1.519175\H,0,0.538399,-14.552532,2.25718\H,0,-0.425128,-1
 3.438237,1.248506\H,0,1.072557,-14.130203,0.606354\C,0,4.437147,-10.68
 9828,5.245018\C,0,2.915949,-12.432188,6.000986\C,0,4.594402,-10.266217
 ,6.693515\H,0,4.526859,-9.815824,4.592573\H,0,5.250289,-11.393788,4.98
 4966\C,0,3.158381,-11.930238,7.417391\H,0,1.875368,-12.773867,5.930693
 \H,0,3.581199,-13.291137,5.787383\H,0,3.856437,-9.475399,6.933879\H,0,
 5.601107,-9.85899,6.854852\H,0,2.378081,-11.187537,7.676294\H,0,3.0854
 94,-12.767798,8.123724\N,0,3.14414,-11.35151,5.052546\O,0,4.43269,-11.
 360314,7.561825\H,0,1.201213,-11.424644,0.204192\H,0,3.08672,-8.989057
 ,3.489322\\Version=ES64L-G16RevC.01\HF=-6142.0041214\RMSD=1.387e-09\Di
 pole=-2.4855851,-12.4071185,0.2956972\Quadrupole=-68.4045073,134.55483
 38,-66.1503265,-32.7797757,8.5771198,-24.0914387\PG=C01 [X(C86H65F8I1N
 6O8S2)]\\@
 The archive entry for this job was punched.


 ONE THORN OF EXPERIENCE IS WORTH A WHOLE WILDERNESS OF
 WARNING....  LOWELL - AMONG MY BOOKS
 Job cpu time:       2 days  2 hours  2 minutes 12.5 seconds.
 Elapsed time:       0 days  2 hours  5 minutes 37.0 seconds.
 File lengths (MBytes):  RWF=  12786 Int=      0 D2E=      0 Chk=   1111 Scr=      1
 Normal termination of Gaussian 16 at Tue Feb 18 09:39:27 2025.
