 Entering Gaussian System, Link 0=g16
 Initial command:
 /ihome/crc/install/gaussian/c01/avx2/tar/g16/l1.exe "/scratch/slurm-18103998/Gau-1397.inp" -scrdir="/scratch/slurm-18103998/"
 Entering Link 1 = /ihome/crc/install/gaussian/c01/avx2/tar/g16/l1.exe PID=      1398.
  
 Copyright (c) 1988-2019, Gaussian, Inc.  All Rights Reserved.
  
 This is part of the Gaussian(R) 16 program.  It is based on
 the Gaussian(R) 09 system (copyright 2009, Gaussian, Inc.),
 the Gaussian(R) 03 system (copyright 2003, Gaussian, Inc.),
 the Gaussian(R) 98 system (copyright 1998, Gaussian, Inc.),
 the Gaussian(R) 94 system (copyright 1995, Gaussian, Inc.),
 the Gaussian 92(TM) system (copyright 1992, Gaussian, Inc.),
 the Gaussian 90(TM) system (copyright 1990, Gaussian, Inc.),
 the Gaussian 88(TM) system (copyright 1988, Gaussian, Inc.),
 the Gaussian 86(TM) system (copyright 1986, Carnegie Mellon
 University), and the Gaussian 82(TM) system (copyright 1983,
 Carnegie Mellon University). Gaussian is a federally registered
 trademark of Gaussian, Inc.
  
 This software contains proprietary and confidential information,
 including trade secrets, belonging to Gaussian, Inc.
  
 This software is provided under written license and may be
 used, copied, transmitted, or stored only in accord with that
 written license.
  
 The following legend is applicable only to US Government
 contracts under FAR:
  
                    RESTRICTED RIGHTS LEGEND
  
 Use, reproduction and disclosure by the US Government is
 subject to restrictions as set forth in subparagraphs (a)
 and (c) of the Commercial Computer Software - Restricted
 Rights clause in FAR 52.227-19.
  
 Gaussian, Inc.
 340 Quinnipiac St., Bldg. 40, Wallingford CT 06492
  
  
 ---------------------------------------------------------------
 Warning -- This program may not be used in any manner that
 competes with the business of Gaussian, Inc. or will provide
 assistance to any competitor of Gaussian, Inc.  The licensee
 of this program is prohibited from giving any competitor of
 Gaussian, Inc. access to this program.  By using this program,
 the user acknowledges that Gaussian, Inc. is engaged in the
 business of creating and licensing software in the field of
 computational chemistry and represents and warrants to the
 licensee that it is not a competitor of Gaussian, Inc. and that
 it will not use this program in any manner prohibited above.
 ---------------------------------------------------------------
  

 Cite this work as:
 Gaussian 16, Revision C.01,
 M. J. Frisch, G. W. Trucks, H. B. Schlegel, G. E. Scuseria, 
 M. A. Robb, J. R. Cheeseman, G. Scalmani, V. Barone, 
 G. A. Petersson, H. Nakatsuji, X. Li, M. Caricato, A. V. Marenich, 
 J. Bloino, B. G. Janesko, R. Gomperts, B. Mennucci, H. P. Hratchian, 
 J. V. Ortiz, A. F. Izmaylov, J. L. Sonnenberg, D. Williams-Young, 
 F. Ding, F. Lipparini, F. Egidi, J. Goings, B. Peng, A. Petrone, 
 T. Henderson, D. Ranasinghe, V. G. Zakrzewski, J. Gao, N. Rega, 
 G. Zheng, W. Liang, M. Hada, M. Ehara, K. Toyota, R. Fukuda, 
 J. Hasegawa, M. Ishida, T. Nakajima, Y. Honda, O. Kitao, H. Nakai, 
 T. Vreven, K. Throssell, J. A. Montgomery, Jr., J. E. Peralta, 
 F. Ogliaro, M. J. Bearpark, J. J. Heyd, E. N. Brothers, K. N. Kudin, 
 V. N. Staroverov, T. A. Keith, R. Kobayashi, J. Normand, 
 K. Raghavachari, A. P. Rendell, J. C. Burant, S. S. Iyengar, 
 J. Tomasi, M. Cossi, J. M. Millam, M. Klene, C. Adamo, R. Cammi, 
 J. W. Ochterski, R. L. Martin, K. Morokuma, O. Farkas, 
 J. B. Foresman, and D. J. Fox, Gaussian, Inc., Wallingford CT, 2019.
 
 ******************************************
 Gaussian 16:  ES64L-G16RevC.01  3-Jul-2019
                26-Feb-2025 
 ******************************************
 %nprocshared=32
 Will use up to   32 processors via shared memory.
 %mem=48GB
 ----------------------------------------------------------------------
 #p b3lyp def2tzvpp scf=maxcycle=128 nosymm scrf=(smd,solvent=propyleth
 anoate) empiricaldispersion=gd3bj
 ----------------------------------------------------------------------
 1/38=1,172=1/1;
 2/12=2,15=1,17=6,18=5,40=1/2;
 3/5=44,7=202,11=2,25=1,30=1,70=32201,72=169,74=-5,124=41/1,2,3;
 4//1;
 5/5=2,7=128,38=5,53=169/2;
 6/7=2,8=2,9=2,10=2,28=1/1;
 99/5=1,9=1/99;
 Leave Link    1 at Wed Feb 26 01:44:14 2025, MaxMem=  6442450944 cpu:               1.3 elap:               0.1
 (Enter /ihome/crc/install/gaussian/c01/avx2/tar/g16/l101.exe)
 -----------------------------
 alkyneCF3_S-ax-S_01_iodi_INT6
 -----------------------------
 Symbolic Z-matrix:
 Charge =  0 Multiplicity = 1
 C                     0.19169  -4.0261   -0.54602 
 C                    -0.81798  -3.24512   0.21761 
 C                    -0.36717  -2.80075   1.55515 
 C                     0.89011  -3.08434   1.97145 
 C                     1.79898  -3.74877   1.08267 
 N                     1.37132  -4.29942  -0.11066 
 H                     1.21482  -2.74082   2.94917 
 C                    -0.15528  -4.51923  -1.9166 
 C                    -0.11313  -3.66306  -3.03274 
 C                    -0.47991  -4.16913  -4.28672 
 C                    -0.85455  -6.3655   -3.34934 
 C                    -0.84725  -5.50438  -4.44362 
 H                    -0.43954  -3.50556  -5.1523 
 H                    -1.11572  -5.88383  -5.43109 
 H                    -1.13156  -7.41687  -3.43261 
 C                    -0.5088   -5.85388  -2.10803 
 C                     0.38252  -2.26125  -2.92396 
 C                     1.69004  -2.00877  -2.48713 
 C                    -0.42046  -1.18645  -3.32856 
 C                     2.18581  -0.7063   -2.46188 
 H                     2.32485  -2.84333  -2.18148 
 C                     0.07518   0.11451  -3.29286 
 H                    -1.44606  -1.37523  -3.65315 
 C                     1.38006   0.35668  -2.86294 
 H                     3.20032  -0.51974  -2.10944 
 H                    -0.5678    0.94773  -3.57755 
 H                     1.76111   1.37881  -2.82178 
 F                    -0.52519  -6.66842  -1.04799 
 C                    -1.3209   -2.04576   2.41796 
 H                    -0.77998  -1.2749    2.98297 
 H                    -2.10299  -1.58808   1.80066 
 H                    -1.81147  -2.73309   3.12545 
 C                     4.01119  -4.66618   0.53359 
 C                     3.78651  -3.15222   2.41319 
 C                     4.70854  -5.63957   1.47865 
 H                     4.75566  -3.99833   0.0752 
 H                     3.45761  -5.19414  -0.24634 
 C                     4.49475  -4.18332   3.28164 
 H                     4.52748  -2.48733   1.94326 
 H                     3.1018   -2.5256    2.98875 
 H                     5.45602  -6.21769   0.91979 
 H                     3.95999  -6.34129   1.89325 
 H                     5.08585  -3.67193   4.05199 
 H                     3.74318  -4.82424   3.78056 
 N                     3.09269  -3.83871   1.32194 
 O                     5.37657  -4.9631    2.51247 
 H                    -1.22673  -2.40387  -0.36908 
 C                     0.35332   3.78058   5.56968 
 C                     0.50868   3.39483   4.25951 
 C                    -0.51517   2.66812   3.58882 
 C                    -1.69328   2.33305   4.31479 
 C                    -1.83185   2.75577   5.66663 
 C                    -0.8318    3.4671    6.28084 
 H                     1.15305   4.32953   6.06932 
 H                     1.43206   3.63446   3.73163 
 C                    -0.38914   2.23929   2.22457 
 C                    -2.70757   1.5773    3.6818 
 H                    -2.74609   2.49456   6.20327 
 H                    -0.94084   3.78545   7.31879 
 C                    -2.56175   1.11691   2.38694 
 C                    -1.3658    1.43639   1.66124 
 H                    -3.61926   1.33968   4.2328 
 C                     0.8105    2.70992   1.44885 
 C                     1.80736   1.85469   1.01484 
 C                     0.88759   4.11035   1.13787 
 C                     2.94974   2.35095   0.30818 
 C                     2.03432   4.60619   0.45365 
 C                    -0.15145   5.02824   1.46275 
 C                     3.05292   3.70778   0.06265 
 C                     2.13243   5.99376   0.15271 
 C                    -0.0357    6.3616    1.14934 
 H                    -1.05564   4.66826   1.95337 
 H                     3.93103   4.08939  -0.46147 
 C                     1.12151   6.8551    0.49708 
 H                     3.02437   6.35238  -0.36479 
 H                    -0.8467    7.04676   1.40099 
 H                     1.19921   7.9175    0.26086 
 S                    -0.98072   0.72309   0.0545 
 O                    -0.68625   1.84101  -0.79189 
 O                    -2.05146  -0.13254  -0.36551 
 S                     1.50766   0.10347   1.25195 
 O                     1.22187  -0.043     2.65478 
 O                     2.62343  -0.6642    0.77892 
 N                     0.26558  -0.20418   0.33438 
 C                    -3.62651   0.33034   1.83491 
 C                    -4.5111   -0.37709   1.40104 
 C                     4.01321   1.51732  -0.16749 
 C                     4.94367   0.87667  -0.60952 
 C                     5.93932  -0.01903  -1.11396 
 C                     5.70979  -1.40109  -1.01051 
 C                     7.12712   0.43035  -1.72261 
 C                     6.6446   -2.3069   -1.50404 
 H                     4.78286  -1.73478  -0.53716 
 C                     8.05852  -0.48091  -2.2109 
 C                     7.81825  -1.85059  -2.10311 
 H                     6.45627  -3.37888  -1.42316 
 H                     8.97357  -0.11821  -2.67927 
 H                     8.55032  -2.56041  -2.48986 
 C                    -5.45322  -1.23416   0.74565 
 C                    -5.62832  -1.10689  -0.63921 
 C                    -6.1832   -2.22483   1.43356 
 C                    -6.52135  -1.93376  -1.31556 
 H                    -5.04418  -0.35763  -1.17367 
 C                    -7.07785  -3.04198   0.75242 
 C                    -7.25112  -2.89799  -0.62513 
 H                    -6.63702  -1.82437  -2.39466 
 H                    -7.63241  -3.80581   1.30002 
 H                    -7.94457  -3.55176  -1.15933 
 C                     7.38039   1.9109   -1.83905 
 F                     7.41809   2.50516  -0.6422 
 F                     8.54168   2.17229  -2.44255 
 F                     6.42542   2.52687  -2.54358 
 C                    -5.9563   -2.41611   2.90916 
 F                    -6.24882  -1.31521   3.61076 
 F                    -6.70946  -3.40388   3.40541 
 F                    -4.68447  -2.71938   3.18378 
 I                    -2.58099  -4.50777   0.53356 
 N                    -6.23703  -5.99351  -0.14645 
 C                    -7.49871  -6.3032   -0.21173 
 C                    -8.13152  -6.80834   1.06212 
 C                    -6.96501  -6.72147   2.03535 
 C                    -5.81385  -6.23501   1.15358 
 O                    -4.67908  -6.07741   1.54939 
 O                    -8.23147  -6.19976  -1.26784 
 H                    -8.99502  -6.17827   1.31923 
 H                    -8.50586  -7.82924   0.89795 
 H                    -6.68868  -7.67797   2.49827 
 H                    -7.11309  -5.99216   2.84407 
 C                    -5.71762  -5.89236  -3.50003 
 C                    -4.71066  -5.25049  -4.20005 
 C                    -4.98047  -3.98937  -4.76656 
 C                    -6.25371  -3.45961  -4.64064 
 C                    -7.23951  -4.17166  -3.91238 
 N                    -6.93078  -5.33688  -3.32629 
 H                    -6.49275  -2.51586  -5.12837 
 C                    -5.53155  -7.24012  -2.89179 
 C                    -6.49929  -8.26453  -2.99236 
 C                    -6.31673  -9.45197  -2.26888 
 C                    -4.22232  -8.65295  -1.37511 
 C                    -5.19354  -9.64592  -1.46791 
 H                    -7.06006  -10.24527  -2.36193 
 H                    -5.06922  -10.58075  -0.91936 
 H                    -3.33204  -8.75305  -0.75316 
 C                    -4.41576  -7.47827  -2.0846 
 C                    -7.70896  -8.13476  -3.85474 
 C                    -7.61283  -7.68486  -5.17983 
 C                    -8.96959  -8.48292  -3.35249 
 C                    -8.75035  -7.57076  -5.97513 
 H                    -6.63456  -7.42095  -5.58819 
 C                    -10.10985  -8.36944  -4.14897 
 H                    -9.05958  -8.81856  -2.31767 
 C                    -10.00468  -7.90976  -5.46114 
 H                    -8.65736  -7.21926  -7.00437 
 H                    -11.0852  -8.63565  -3.73756 
 H                    -10.89621  -7.8173   -6.08418 
 F                    -3.50502  -6.51193  -1.94863 
 C                    -3.90178  -3.24797  -5.50045 
 H                    -3.1563   -2.87636  -4.78039 
 H                    -3.37659  -3.91109  -6.20272 
 H                    -4.30516  -2.39028  -6.05358 
 C                    -9.63084  -4.62196  -3.45947 
 C                    -8.94155  -2.34616  -3.97199 
 C                    -10.73628  -4.44309  -4.49309 
 H                    -10.02253  -4.40758  -2.44911 
 H                    -9.28678  -5.66334  -3.48209 
 C                    -10.07109  -2.27517  -4.98885 
 H                    -9.30754  -1.94794  -3.00757 
 H                    -8.10005  -1.72277  -4.29142 
 H                    -11.61692  -5.03461  -4.20659 
 H                    -10.37199  -4.80748  -5.47373 
 H                    -10.45286  -1.24797  -5.06215 
 H                    -9.69119  -2.58425  -5.98234 
 N                    -8.52505  -3.72534  -3.77388 
 O                    -11.14215  -3.09983  -4.59955 
 H                    -3.7286   -5.71101  -4.3052 
 H                    -7.69933  -5.86528  -2.11492 
 
 ITRead=  0  0  0  0  0  0  0  0  0  0  0  0  0  0  0  0  0  0  0  0
 ITRead=  0  0  0  0  0  0  0  0  0  0  0  0  0  0  0  0  0  0  0  0
 ITRead=  0  0  0  0  0  0  0  0  0  0  0  0  0  0  0  0  0  0  0  0
 ITRead=  0  0  0  0  0  0  0  0  0  0  0  0  0  0  0  0  0  0  0  0
 ITRead=  0  0  0  0  0  0  0  0  0  0  0  0  0  0  0  0  0  0  0  0
 ITRead=  0  0  0  0  0  0  0  0  0  0  0  0  0  0  0  0  0  0  0  0
 ITRead=  0  0  0  0  0  0  0  0  0  0  0  0  0  0  0  0  0  0  0  0
 ITRead=  0  0  0  0  0  0  0  0  0  0  0  0  0  0  0  0  0  0  0  0
 ITRead=  0  0  0  0  0  0  0  0  0  0  0  0  0  0  0  0
 MicOpt= -1 -1 -1 -1 -1 -1 -1 -1 -1 -1 -1 -1 -1 -1 -1 -1 -1 -1 -1 -1
 MicOpt= -1 -1 -1 -1 -1 -1 -1 -1 -1 -1 -1 -1 -1 -1 -1 -1 -1 -1 -1 -1
 MicOpt= -1 -1 -1 -1 -1 -1 -1 -1 -1 -1 -1 -1 -1 -1 -1 -1 -1 -1 -1 -1
 MicOpt= -1 -1 -1 -1 -1 -1 -1 -1 -1 -1 -1 -1 -1 -1 -1 -1 -1 -1 -1 -1
 MicOpt= -1 -1 -1 -1 -1 -1 -1 -1 -1 -1 -1 -1 -1 -1 -1 -1 -1 -1 -1 -1
 MicOpt= -1 -1 -1 -1 -1 -1 -1 -1 -1 -1 -1 -1 -1 -1 -1 -1 -1 -1 -1 -1
 MicOpt= -1 -1 -1 -1 -1 -1 -1 -1 -1 -1 -1 -1 -1 -1 -1 -1 -1 -1 -1 -1
 MicOpt= -1 -1 -1 -1 -1 -1 -1 -1 -1 -1 -1 -1 -1 -1 -1 -1 -1 -1 -1 -1
 MicOpt= -1 -1 -1 -1 -1 -1 -1 -1 -1 -1 -1 -1 -1 -1 -1 -1
 NAtoms=    176 NQM=      176 NQMF=       0 NMMI=      0 NMMIF=      0
                NMic=       0 NMicF=      0.
                    Isotopes and Nuclear Properties:
 (Nuclear quadrupole moments (NQMom) in fm**2, nuclear magnetic moments (NMagM)
  in nuclear magnetons)

  Atom         1           2           3           4           5           6           7           8           9          10
 IAtWgt=          12          12          12          12          12          14           1          12          12          12
 AtmWgt=  12.0000000  12.0000000  12.0000000  12.0000000  12.0000000  14.0030740   1.0078250  12.0000000  12.0000000  12.0000000
 NucSpn=           0           0           0           0           0           2           1           0           0           0
 AtZEff=  -0.0000000  -0.0000000  -0.0000000  -0.0000000  -0.0000000  -0.0000000  -0.0000000  -0.0000000  -0.0000000  -0.0000000
 NQMom=    0.0000000   0.0000000   0.0000000   0.0000000   0.0000000   2.0440000   0.0000000   0.0000000   0.0000000   0.0000000
 NMagM=    0.0000000   0.0000000   0.0000000   0.0000000   0.0000000   0.4037610   2.7928460   0.0000000   0.0000000   0.0000000
 AtZNuc=   6.0000000   6.0000000   6.0000000   6.0000000   6.0000000   7.0000000   1.0000000   6.0000000   6.0000000   6.0000000

  Atom        11          12          13          14          15          16          17          18          19          20
 IAtWgt=          12          12           1           1           1          12          12          12          12          12
 AtmWgt=  12.0000000  12.0000000   1.0078250   1.0078250   1.0078250  12.0000000  12.0000000  12.0000000  12.0000000  12.0000000
 NucSpn=           0           0           1           1           1           0           0           0           0           0
 AtZEff=  -0.0000000  -0.0000000  -0.0000000  -0.0000000  -0.0000000  -0.0000000  -0.0000000  -0.0000000  -0.0000000  -0.0000000
 NQMom=    0.0000000   0.0000000   0.0000000   0.0000000   0.0000000   0.0000000   0.0000000   0.0000000   0.0000000   0.0000000
 NMagM=    0.0000000   0.0000000   2.7928460   2.7928460   2.7928460   0.0000000   0.0000000   0.0000000   0.0000000   0.0000000
 AtZNuc=   6.0000000   6.0000000   1.0000000   1.0000000   1.0000000   6.0000000   6.0000000   6.0000000   6.0000000   6.0000000

  Atom        21          22          23          24          25          26          27          28          29          30
 IAtWgt=           1          12           1          12           1           1           1          19          12           1
 AtmWgt=   1.0078250  12.0000000   1.0078250  12.0000000   1.0078250   1.0078250   1.0078250  18.9984032  12.0000000   1.0078250
 NucSpn=           1           0           1           0           1           1           1           1           0           1
 AtZEff=  -0.0000000  -0.0000000  -0.0000000  -0.0000000  -0.0000000  -0.0000000  -0.0000000  -0.0000000  -0.0000000  -0.0000000
 NQMom=    0.0000000   0.0000000   0.0000000   0.0000000   0.0000000   0.0000000   0.0000000   0.0000000   0.0000000   0.0000000
 NMagM=    2.7928460   0.0000000   2.7928460   0.0000000   2.7928460   2.7928460   2.7928460   2.6288670   0.0000000   2.7928460
 AtZNuc=   1.0000000   6.0000000   1.0000000   6.0000000   1.0000000   1.0000000   1.0000000   9.0000000   6.0000000   1.0000000

  Atom        31          32          33          34          35          36          37          38          39          40
 IAtWgt=           1           1          12          12          12           1           1          12           1           1
 AtmWgt=   1.0078250   1.0078250  12.0000000  12.0000000  12.0000000   1.0078250   1.0078250  12.0000000   1.0078250   1.0078250
 NucSpn=           1           1           0           0           0           1           1           0           1           1
 AtZEff=  -0.0000000  -0.0000000  -0.0000000  -0.0000000  -0.0000000  -0.0000000  -0.0000000  -0.0000000  -0.0000000  -0.0000000
 NQMom=    0.0000000   0.0000000   0.0000000   0.0000000   0.0000000   0.0000000   0.0000000   0.0000000   0.0000000   0.0000000
 NMagM=    2.7928460   2.7928460   0.0000000   0.0000000   0.0000000   2.7928460   2.7928460   0.0000000   2.7928460   2.7928460
 AtZNuc=   1.0000000   1.0000000   6.0000000   6.0000000   6.0000000   1.0000000   1.0000000   6.0000000   1.0000000   1.0000000

  Atom        41          42          43          44          45          46          47          48          49          50
 IAtWgt=           1           1           1           1          14          16           1          12          12          12
 AtmWgt=   1.0078250   1.0078250   1.0078250   1.0078250  14.0030740  15.9949146   1.0078250  12.0000000  12.0000000  12.0000000
 NucSpn=           1           1           1           1           2           0           1           0           0           0
 AtZEff=  -0.0000000  -0.0000000  -0.0000000  -0.0000000  -0.0000000  -0.0000000  -0.0000000  -0.0000000  -0.0000000  -0.0000000
 NQMom=    0.0000000   0.0000000   0.0000000   0.0000000   2.0440000   0.0000000   0.0000000   0.0000000   0.0000000   0.0000000
 NMagM=    2.7928460   2.7928460   2.7928460   2.7928460   0.4037610   0.0000000   2.7928460   0.0000000   0.0000000   0.0000000
 AtZNuc=   1.0000000   1.0000000   1.0000000   1.0000000   7.0000000   8.0000000   1.0000000   6.0000000   6.0000000   6.0000000

  Atom        51          52          53          54          55          56          57          58          59          60
 IAtWgt=          12          12          12           1           1          12          12           1           1          12
 AtmWgt=  12.0000000  12.0000000  12.0000000   1.0078250   1.0078250  12.0000000  12.0000000   1.0078250   1.0078250  12.0000000
 NucSpn=           0           0           0           1           1           0           0           1           1           0
 AtZEff=  -0.0000000  -0.0000000  -0.0000000  -0.0000000  -0.0000000  -0.0000000  -0.0000000  -0.0000000  -0.0000000  -0.0000000
 NQMom=    0.0000000   0.0000000   0.0000000   0.0000000   0.0000000   0.0000000   0.0000000   0.0000000   0.0000000   0.0000000
 NMagM=    0.0000000   0.0000000   0.0000000   2.7928460   2.7928460   0.0000000   0.0000000   2.7928460   2.7928460   0.0000000
 AtZNuc=   6.0000000   6.0000000   6.0000000   1.0000000   1.0000000   6.0000000   6.0000000   1.0000000   1.0000000   6.0000000

  Atom        61          62          63          64          65          66          67          68          69          70
 IAtWgt=          12           1          12          12          12          12          12          12          12          12
 AtmWgt=  12.0000000   1.0078250  12.0000000  12.0000000  12.0000000  12.0000000  12.0000000  12.0000000  12.0000000  12.0000000
 NucSpn=           0           1           0           0           0           0           0           0           0           0
 AtZEff=  -0.0000000  -0.0000000  -0.0000000  -0.0000000  -0.0000000  -0.0000000  -0.0000000  -0.0000000  -0.0000000  -0.0000000
 NQMom=    0.0000000   0.0000000   0.0000000   0.0000000   0.0000000   0.0000000   0.0000000   0.0000000   0.0000000   0.0000000
 NMagM=    0.0000000   2.7928460   0.0000000   0.0000000   0.0000000   0.0000000   0.0000000   0.0000000   0.0000000   0.0000000
 AtZNuc=   6.0000000   1.0000000   6.0000000   6.0000000   6.0000000   6.0000000   6.0000000   6.0000000   6.0000000   6.0000000

  Atom        71          72          73          74          75          76          77          78          79          80
 IAtWgt=          12           1           1          12           1           1           1          32          16          16
 AtmWgt=  12.0000000   1.0078250   1.0078250  12.0000000   1.0078250   1.0078250   1.0078250  31.9720718  15.9949146  15.9949146
 NucSpn=           0           1           1           0           1           1           1           0           0           0
 AtZEff=  -0.0000000  -0.0000000  -0.0000000  -0.0000000  -0.0000000  -0.0000000  -0.0000000  -0.0000000  -0.0000000  -0.0000000
 NQMom=    0.0000000   0.0000000   0.0000000   0.0000000   0.0000000   0.0000000   0.0000000   0.0000000   0.0000000   0.0000000
 NMagM=    0.0000000   2.7928460   2.7928460   0.0000000   2.7928460   2.7928460   2.7928460   0.0000000   0.0000000   0.0000000
 AtZNuc=   6.0000000   1.0000000   1.0000000   6.0000000   1.0000000   1.0000000   1.0000000  16.0000000   8.0000000   8.0000000

  Atom        81          82          83          84          85          86          87          88          89          90
 IAtWgt=          32          16          16          14          12          12          12          12          12          12
 AtmWgt=  31.9720718  15.9949146  15.9949146  14.0030740  12.0000000  12.0000000  12.0000000  12.0000000  12.0000000  12.0000000
 NucSpn=           0           0           0           2           0           0           0           0           0           0
 AtZEff=  -0.0000000  -0.0000000  -0.0000000  -0.0000000  -0.0000000  -0.0000000  -0.0000000  -0.0000000  -0.0000000  -0.0000000
 NQMom=    0.0000000   0.0000000   0.0000000   2.0440000   0.0000000   0.0000000   0.0000000   0.0000000   0.0000000   0.0000000
 NMagM=    0.0000000   0.0000000   0.0000000   0.4037610   0.0000000   0.0000000   0.0000000   0.0000000   0.0000000   0.0000000
 AtZNuc=  16.0000000   8.0000000   8.0000000   7.0000000   6.0000000   6.0000000   6.0000000   6.0000000   6.0000000   6.0000000

  Atom        91          92          93          94          95          96          97          98          99         100
 IAtWgt=          12          12           1          12          12           1           1           1          12          12
 AtmWgt=  12.0000000  12.0000000   1.0078250  12.0000000  12.0000000   1.0078250   1.0078250   1.0078250  12.0000000  12.0000000
 NucSpn=           0           0           1           0           0           1           1           1           0           0
 AtZEff=  -0.0000000  -0.0000000  -0.0000000  -0.0000000  -0.0000000  -0.0000000  -0.0000000  -0.0000000  -0.0000000  -0.0000000
 NQMom=    0.0000000   0.0000000   0.0000000   0.0000000   0.0000000   0.0000000   0.0000000   0.0000000   0.0000000   0.0000000
 NMagM=    0.0000000   0.0000000   2.7928460   0.0000000   0.0000000   2.7928460   2.7928460   2.7928460   0.0000000   0.0000000
 AtZNuc=   6.0000000   6.0000000   1.0000000   6.0000000   6.0000000   1.0000000   1.0000000   1.0000000   6.0000000   6.0000000

  Atom       101         102         103         104         105         106         107         108         109         110
 IAtWgt=          12          12           1          12          12           1           1           1          12          19
 AtmWgt=  12.0000000  12.0000000   1.0078250  12.0000000  12.0000000   1.0078250   1.0078250   1.0078250  12.0000000  18.9984032
 NucSpn=           0           0           1           0           0           1           1           1           0           1
 AtZEff=  -0.0000000  -0.0000000  -0.0000000  -0.0000000  -0.0000000  -0.0000000  -0.0000000  -0.0000000  -0.0000000  -0.0000000
 NQMom=    0.0000000   0.0000000   0.0000000   0.0000000   0.0000000   0.0000000   0.0000000   0.0000000   0.0000000   0.0000000
 NMagM=    0.0000000   0.0000000   2.7928460   0.0000000   0.0000000   2.7928460   2.7928460   2.7928460   0.0000000   2.6288670
 AtZNuc=   6.0000000   6.0000000   1.0000000   6.0000000   6.0000000   1.0000000   1.0000000   1.0000000   6.0000000   9.0000000

  Atom       111         112         113         114         115         116         117         118         119         120
 IAtWgt=          19          19          12          19          19          19         127          14          12          12
 AtmWgt=  18.9984032  18.9984032  12.0000000  18.9984032  18.9984032  18.9984032 126.9004000  14.0030740  12.0000000  12.0000000
 NucSpn=           1           1           0           1           1           1           5           2           0           0
 AtZEff=  -0.0000000  -0.0000000  -0.0000000  -0.0000000  -0.0000000  -0.0000000  -0.0000000  -0.0000000  -0.0000000  -0.0000000
 NQMom=    0.0000000   0.0000000   0.0000000   0.0000000   0.0000000   0.0000000 -71.0000000   2.0440000   0.0000000   0.0000000
 NMagM=    2.6288670   2.6288670   0.0000000   2.6288670   2.6288670   2.6288670   2.8132800   0.4037610   0.0000000   0.0000000
 AtZNuc=   9.0000000   9.0000000   6.0000000   9.0000000   9.0000000   9.0000000  53.0000000   7.0000000   6.0000000   6.0000000

  Atom       121         122         123         124         125         126         127         128         129         130
 IAtWgt=          12          12          16          16           1           1           1           1          12          12
 AtmWgt=  12.0000000  12.0000000  15.9949146  15.9949146   1.0078250   1.0078250   1.0078250   1.0078250  12.0000000  12.0000000
 NucSpn=           0           0           0           0           1           1           1           1           0           0
 AtZEff=  -0.0000000  -0.0000000  -0.0000000  -0.0000000  -0.0000000  -0.0000000  -0.0000000  -0.0000000  -0.0000000  -0.0000000
 NQMom=    0.0000000   0.0000000   0.0000000   0.0000000   0.0000000   0.0000000   0.0000000   0.0000000   0.0000000   0.0000000
 NMagM=    0.0000000   0.0000000   0.0000000   0.0000000   2.7928460   2.7928460   2.7928460   2.7928460   0.0000000   0.0000000
 AtZNuc=   6.0000000   6.0000000   8.0000000   8.0000000   1.0000000   1.0000000   1.0000000   1.0000000   6.0000000   6.0000000

  Atom       131         132         133         134         135         136         137         138         139         140
 IAtWgt=          12          12          12          14           1          12          12          12          12          12
 AtmWgt=  12.0000000  12.0000000  12.0000000  14.0030740   1.0078250  12.0000000  12.0000000  12.0000000  12.0000000  12.0000000
 NucSpn=           0           0           0           2           1           0           0           0           0           0
 AtZEff=  -0.0000000  -0.0000000  -0.0000000  -0.0000000  -0.0000000  -0.0000000  -0.0000000  -0.0000000  -0.0000000  -0.0000000
 NQMom=    0.0000000   0.0000000   0.0000000   2.0440000   0.0000000   0.0000000   0.0000000   0.0000000   0.0000000   0.0000000
 NMagM=    0.0000000   0.0000000   0.0000000   0.4037610   2.7928460   0.0000000   0.0000000   0.0000000   0.0000000   0.0000000
 AtZNuc=   6.0000000   6.0000000   6.0000000   7.0000000   1.0000000   6.0000000   6.0000000   6.0000000   6.0000000   6.0000000

  Atom       141         142         143         144         145         146         147         148         149         150
 IAtWgt=           1           1           1          12          12          12          12          12           1          12
 AtmWgt=   1.0078250   1.0078250   1.0078250  12.0000000  12.0000000  12.0000000  12.0000000  12.0000000   1.0078250  12.0000000
 NucSpn=           1           1           1           0           0           0           0           0           1           0
 AtZEff=  -0.0000000  -0.0000000  -0.0000000  -0.0000000  -0.0000000  -0.0000000  -0.0000000  -0.0000000  -0.0000000  -0.0000000
 NQMom=    0.0000000   0.0000000   0.0000000   0.0000000   0.0000000   0.0000000   0.0000000   0.0000000   0.0000000   0.0000000
 NMagM=    2.7928460   2.7928460   2.7928460   0.0000000   0.0000000   0.0000000   0.0000000   0.0000000   2.7928460   0.0000000
 AtZNuc=   1.0000000   1.0000000   1.0000000   6.0000000   6.0000000   6.0000000   6.0000000   6.0000000   1.0000000   6.0000000

  Atom       151         152         153         154         155         156         157         158         159         160
 IAtWgt=           1          12           1           1           1          19          12           1           1           1
 AtmWgt=   1.0078250  12.0000000   1.0078250   1.0078250   1.0078250  18.9984032  12.0000000   1.0078250   1.0078250   1.0078250
 NucSpn=           1           0           1           1           1           1           0           1           1           1
 AtZEff=  -0.0000000  -0.0000000  -0.0000000  -0.0000000  -0.0000000  -0.0000000  -0.0000000  -0.0000000  -0.0000000  -0.0000000
 NQMom=    0.0000000   0.0000000   0.0000000   0.0000000   0.0000000   0.0000000   0.0000000   0.0000000   0.0000000   0.0000000
 NMagM=    2.7928460   0.0000000   2.7928460   2.7928460   2.7928460   2.6288670   0.0000000   2.7928460   2.7928460   2.7928460
 AtZNuc=   1.0000000   6.0000000   1.0000000   1.0000000   1.0000000   9.0000000   6.0000000   1.0000000   1.0000000   1.0000000

  Atom       161         162         163         164         165         166         167         168         169         170
 IAtWgt=          12          12          12           1           1          12           1           1           1           1
 AtmWgt=  12.0000000  12.0000000  12.0000000   1.0078250   1.0078250  12.0000000   1.0078250   1.0078250   1.0078250   1.0078250
 NucSpn=           0           0           0           1           1           0           1           1           1           1
 AtZEff=  -0.0000000  -0.0000000  -0.0000000  -0.0000000  -0.0000000  -0.0000000  -0.0000000  -0.0000000  -0.0000000  -0.0000000
 NQMom=    0.0000000   0.0000000   0.0000000   0.0000000   0.0000000   0.0000000   0.0000000   0.0000000   0.0000000   0.0000000
 NMagM=    0.0000000   0.0000000   0.0000000   2.7928460   2.7928460   0.0000000   2.7928460   2.7928460   2.7928460   2.7928460
 AtZNuc=   6.0000000   6.0000000   6.0000000   1.0000000   1.0000000   6.0000000   1.0000000   1.0000000   1.0000000   1.0000000

  Atom       171         172         173         174         175         176
 IAtWgt=           1           1          14          16           1           1
 AtmWgt=   1.0078250   1.0078250  14.0030740  15.9949146   1.0078250   1.0078250
 NucSpn=           1           1           2           0           1           1
 AtZEff=  -0.0000000  -0.0000000  -0.0000000  -0.0000000  -0.0000000  -0.0000000
 NQMom=    0.0000000   0.0000000   2.0440000   0.0000000   0.0000000   0.0000000
 NMagM=    2.7928460   2.7928460   0.4037610   0.0000000   2.7928460   2.7928460
 AtZNuc=   1.0000000   1.0000000   7.0000000   8.0000000   1.0000000   1.0000000
 Leave Link  101 at Wed Feb 26 01:44:14 2025, MaxMem=  6442450944 cpu:               1.5 elap:               0.1
 (Enter /ihome/crc/install/gaussian/c01/avx2/tar/g16/l202.exe)
 Symmetry turned off by external request.
 Stoichiometry    C86H65F8IN6O8S2
 Framework group  C1[X(C86H65F8IN6O8S2)]
 Deg. of freedom   522
 Full point group                 C1      NOp   1
                          Input orientation:                          
 ---------------------------------------------------------------------
 Center     Atomic      Atomic             Coordinates (Angstroms)
 Number     Number       Type             X           Y           Z
 ---------------------------------------------------------------------
      1          6           0        0.191691   -4.026097   -0.546023
      2          6           0       -0.817979   -3.245118    0.217605
      3          6           0       -0.367166   -2.800747    1.555151
      4          6           0        0.890112   -3.084341    1.971448
      5          6           0        1.798975   -3.748771    1.082666
      6          7           0        1.371324   -4.299423   -0.110663
      7          1           0        1.214816   -2.740821    2.949166
      8          6           0       -0.155278   -4.519234   -1.916599
      9          6           0       -0.113128   -3.663057   -3.032741
     10          6           0       -0.479913   -4.169135   -4.286720
     11          6           0       -0.854545   -6.365496   -3.349340
     12          6           0       -0.847250   -5.504383   -4.443617
     13          1           0       -0.439537   -3.505555   -5.152301
     14          1           0       -1.115724   -5.883834   -5.431092
     15          1           0       -1.131557   -7.416869   -3.432614
     16          6           0       -0.508800   -5.853879   -2.108027
     17          6           0        0.382516   -2.261248   -2.923963
     18          6           0        1.690043   -2.008774   -2.487134
     19          6           0       -0.420455   -1.186451   -3.328561
     20          6           0        2.185805   -0.706300   -2.461881
     21          1           0        2.324849   -2.843332   -2.181482
     22          6           0        0.075176    0.114506   -3.292857
     23          1           0       -1.446064   -1.375225   -3.653152
     24          6           0        1.380061    0.356683   -2.862935
     25          1           0        3.200323   -0.519736   -2.109440
     26          1           0       -0.567801    0.947731   -3.577548
     27          1           0        1.761112    1.378813   -2.821780
     28          9           0       -0.525194   -6.668415   -1.047992
     29          6           0       -1.320902   -2.045763    2.417956
     30          1           0       -0.779984   -1.274903    2.982973
     31          1           0       -2.102987   -1.588082    1.800658
     32          1           0       -1.811467   -2.733093    3.125450
     33          6           0        4.011192   -4.666184    0.533590
     34          6           0        3.786509   -3.152219    2.413186
     35          6           0        4.708535   -5.639567    1.478646
     36          1           0        4.755658   -3.998329    0.075198
     37          1           0        3.457613   -5.194140   -0.246338
     38          6           0        4.494746   -4.183322    3.281635
     39          1           0        4.527478   -2.487333    1.943260
     40          1           0        3.101802   -2.525598    2.988748
     41          1           0        5.456017   -6.217690    0.919786
     42          1           0        3.959988   -6.341289    1.893246
     43          1           0        5.085847   -3.671930    4.051986
     44          1           0        3.743179   -4.824244    3.780560
     45          7           0        3.092695   -3.838713    1.321938
     46          8           0        5.376574   -4.963095    2.512469
     47          1           0       -1.226727   -2.403874   -0.369082
     48          6           0        0.353316    3.780579    5.569683
     49          6           0        0.508680    3.394828    4.259512
     50          6           0       -0.515170    2.668116    3.588823
     51          6           0       -1.693275    2.333051    4.314785
     52          6           0       -1.831851    2.755771    5.666632
     53          6           0       -0.831804    3.467097    6.280836
     54          1           0        1.153045    4.329535    6.069318
     55          1           0        1.432057    3.634458    3.731632
     56          6           0       -0.389142    2.239285    2.224567
     57          6           0       -2.707569    1.577297    3.681796
     58          1           0       -2.746091    2.494558    6.203266
     59          1           0       -0.940843    3.785449    7.318786
     60          6           0       -2.561750    1.116913    2.386942
     61          6           0       -1.365800    1.436394    1.661241
     62          1           0       -3.619257    1.339675    4.232802
     63          6           0        0.810497    2.709918    1.448849
     64          6           0        1.807364    1.854689    1.014839
     65          6           0        0.887587    4.110348    1.137872
     66          6           0        2.949738    2.350952    0.308182
     67          6           0        2.034322    4.606188    0.453645
     68          6           0       -0.151454    5.028242    1.462748
     69          6           0        3.052918    3.707783    0.062653
     70          6           0        2.132431    5.993763    0.152714
     71          6           0       -0.035700    6.361603    1.149340
     72          1           0       -1.055645    4.668260    1.953367
     73          1           0        3.931032    4.089388   -0.461466
     74          6           0        1.121510    6.855098    0.497079
     75          1           0        3.024374    6.352380   -0.364786
     76          1           0       -0.846700    7.046763    1.400991
     77          1           0        1.199209    7.917495    0.260860
     78         16           0       -0.980723    0.723089    0.054499
     79          8           0       -0.686249    1.841013   -0.791888
     80          8           0       -2.051456   -0.132535   -0.365508
     81         16           0        1.507658    0.103474    1.251954
     82          8           0        1.221866   -0.043000    2.654777
     83          8           0        2.623430   -0.664203    0.778916
     84          7           0        0.265577   -0.204181    0.334378
     85          6           0       -3.626514    0.330341    1.834910
     86          6           0       -4.511101   -0.377092    1.401035
     87          6           0        4.013213    1.517315   -0.167491
     88          6           0        4.943669    0.876666   -0.609521
     89          6           0        5.939321   -0.019031   -1.113957
     90          6           0        5.709786   -1.401085   -1.010514
     91          6           0        7.127116    0.430352   -1.722610
     92          6           0        6.644595   -2.306898   -1.504044
     93          1           0        4.782863   -1.734783   -0.537164
     94          6           0        8.058524   -0.480907   -2.210900
     95          6           0        7.818249   -1.850594   -2.103105
     96          1           0        6.456273   -3.378881   -1.423163
     97          1           0        8.973569   -0.118214   -2.679274
     98          1           0        8.550318   -2.560407   -2.489858
     99          6           0       -5.453215   -1.234162    0.745652
    100          6           0       -5.628316   -1.106887   -0.639210
    101          6           0       -6.183201   -2.224834    1.433560
    102          6           0       -6.521346   -1.933759   -1.315563
    103          1           0       -5.044181   -0.357632   -1.173666
    104          6           0       -7.077852   -3.041981    0.752419
    105          6           0       -7.251124   -2.897986   -0.625134
    106          1           0       -6.637017   -1.824367   -2.394661
    107          1           0       -7.632410   -3.805809    1.300021
    108          1           0       -7.944574   -3.551763   -1.159333
    109          6           0        7.380387    1.910896   -1.839051
    110          9           0        7.418085    2.505159   -0.642199
    111          9           0        8.541678    2.172292   -2.442551
    112          9           0        6.425422    2.526873   -2.543579
    113          6           0       -5.956296   -2.416113    2.909162
    114          9           0       -6.248824   -1.315210    3.610764
    115          9           0       -6.709456   -3.403878    3.405414
    116          9           0       -4.684470   -2.719378    3.183775
    117         53           0       -2.580992   -4.507765    0.533561
    118          7           0       -6.237032   -5.993507   -0.146450
    119          6           0       -7.498708   -6.303204   -0.211730
    120          6           0       -8.131519   -6.808336    1.062122
    121          6           0       -6.965009   -6.721467    2.035351
    122          6           0       -5.813853   -6.235015    1.153582
    123          8           0       -4.679078   -6.077413    1.549385
    124          8           0       -8.231472   -6.199763   -1.267839
    125          1           0       -8.995021   -6.178267    1.319229
    126          1           0       -8.505855   -7.829240    0.897953
    127          1           0       -6.688676   -7.677970    2.498273
    128          1           0       -7.113092   -5.992165    2.844071
    129          6           0       -5.717624   -5.892360   -3.500029
    130          6           0       -4.710658   -5.250492   -4.200047
    131          6           0       -4.980466   -3.989374   -4.766557
    132          6           0       -6.253706   -3.459605   -4.640636
    133          6           0       -7.239505   -4.171658   -3.912376
    134          7           0       -6.930782   -5.336882   -3.326289
    135          1           0       -6.492746   -2.515864   -5.128365
    136          6           0       -5.531549   -7.240118   -2.891793
    137          6           0       -6.499288   -8.264526   -2.992357
    138          6           0       -6.316726   -9.451970   -2.268877
    139          6           0       -4.222323   -8.652948   -1.375111
    140          6           0       -5.193541   -9.645917   -1.467911
    141          1           0       -7.060059  -10.245266   -2.361931
    142          1           0       -5.069216  -10.580751   -0.919359
    143          1           0       -3.332036   -8.753052   -0.753160
    144          6           0       -4.415762   -7.478272   -2.084602
    145          6           0       -7.708963   -8.134757   -3.854737
    146          6           0       -7.612829   -7.684863   -5.179830
    147          6           0       -8.969586   -8.482918   -3.352492
    148          6           0       -8.750354   -7.570756   -5.975127
    149          1           0       -6.634558   -7.420949   -5.588191
    150          6           0      -10.109849   -8.369436   -4.148965
    151          1           0       -9.059577   -8.818562   -2.317669
    152          6           0      -10.004675   -7.909756   -5.461144
    153          1           0       -8.657355   -7.219261   -7.004374
    154          1           0      -11.085198   -8.635652   -3.737563
    155          1           0      -10.896209   -7.817304   -6.084183
    156          9           0       -3.505019   -6.511928   -1.948625
    157          6           0       -3.901783   -3.247971   -5.500446
    158          1           0       -3.156298   -2.876363   -4.780391
    159          1           0       -3.376594   -3.911094   -6.202716
    160          1           0       -4.305160   -2.390282   -6.053584
    161          6           0       -9.630837   -4.621957   -3.459473
    162          6           0       -8.941546   -2.346163   -3.971992
    163          6           0      -10.736276   -4.443093   -4.493086
    164          1           0      -10.022531   -4.407584   -2.449106
    165          1           0       -9.286784   -5.663341   -3.482094
    166          6           0      -10.071086   -2.275172   -4.988853
    167          1           0       -9.307542   -1.947940   -3.007574
    168          1           0       -8.100046   -1.722769   -4.291421
    169          1           0      -11.616919   -5.034606   -4.206586
    170          1           0      -10.371994   -4.807484   -5.473733
    171          1           0      -10.452856   -1.247971   -5.062147
    172          1           0       -9.691189   -2.584246   -5.982338
    173          7           0       -8.525050   -3.725338   -3.773877
    174          8           0      -11.142146   -3.099833   -4.599552
    175          1           0       -3.728603   -5.711006   -4.305196
    176          1           0       -7.699328   -5.865283   -2.114924
 ---------------------------------------------------------------------
 Rotational constants (GHZ):           0.0219679           0.0088180           0.0079361
 Leave Link  202 at Wed Feb 26 01:44:14 2025, MaxMem=  6442450944 cpu:               1.8 elap:               0.1
 (Enter /ihome/crc/install/gaussian/c01/avx2/tar/g16/l301.exe)
 Standard basis: def2TZVPP (5D, 7F)
 Ernie: Thresh=  0.10000D-02 Tol=  0.10000D-05 Strict=F.
  4392 basis functions,  6860 primitive gaussians,  5018 cartesian basis functions
   408 alpha electrons      408 beta electrons
       nuclear repulsion energy     26489.6530202530 Hartrees.
 IExCor=  402 DFT=T Ex+Corr=B3LYP ExCW=0 ScaHFX=  0.200000
 ScaDFX=  0.800000  0.720000  1.000000  0.810000 ScalE2=  1.000000  1.000000
 IRadAn=      5 IRanWt=     -1 IRanGd=            0 ICorTp=0 IEmpDi=141
 NAtoms=  176 NActive=  176 NUniq=  176 SFac= 1.00D+00 NAtFMM=   60 NAOKFM=T Big=T
 Integral buffers will be    131072 words long.
 Raffenetti 2 integral format.
 Two-electron integral symmetry is turned off.
 R6Disp:  Grimme-D3(BJ) Dispersion energy=       -0.5672830910 Hartrees.
 Nuclear repulsion after empirical dispersion term =    26489.0857371621 Hartrees.
 ------------------------------------------------------------------------------
 Polarizable Continuum Model (PCM)
 =================================
 Model                : PCM.
 Atomic radii         : SMD-Coulomb.
 Polarization charges : Total charges.
 Charge compensation  : None.
 Solution method      : On-the-fly selection.
 Cavity type          : VdW (van der Waals Surface) (Alpha=1.000).
 Cavity algorithm     : GePol (No added spheres)
                        Default sphere list used, NSphG=  176.
                        Lebedev-Laikov grids with approx.  5.0 points / Ang**2.
                        Smoothing algorithm: York/Karplus (Gamma=1.0000).
                        Polarization charges: spherical gaussians, with
                                              point-specific exponents (IZeta= 3).
                        Self-potential: point-specific (ISelfS= 7).
                        Self-field    : sphere-specific E.n sum rule (ISelfD= 2).
 Solvent              : PropylEthanoate, Eps=   5.520500 Eps(inf)=   1.916010
 ------------------------------------------------------------------------------
 GePol: Number of generator spheres                  =     176
 GePol: Total number of spheres                      =     176
 GePol: Number of exposed spheres                    =     175 ( 99.43%)
 GePol: Number of points                             =   12104
 GePol: Average weight of points                     =       0.11
 GePol: Minimum weight of points                     =   0.15D-11
 GePol: Maximum weight of points                     =    0.21501
 GePol: Number of points with low weight             =     816
 GePol: Fraction of low-weight points (<1% of avg)   =       6.74%
 GePol: Cavity surface area                          =   1328.775 Ang**2
 GePol: Cavity volume                                =   1552.620 Ang**3
 ------------------------------------------------------------------------------
 Atomic radii for non-electrostatic terms: SMD-CDS.
 ------------------------------------------------------------------------------
 PCM non-electrostatic energy =        -0.0323145352 Hartrees.
 Nuclear repulsion after PCM non-electrostatic terms =    26489.0534226269 Hartrees.
 Leave Link  301 at Wed Feb 26 01:44:14 2025, MaxMem=  6442450944 cpu:               2.3 elap:               0.1
 (Enter /ihome/crc/install/gaussian/c01/avx2/tar/g16/l302.exe)
 NPDir=0 NMtPBC=     1 NCelOv=     1 NCel=       1 NClECP=     1 NCelD=      1
         NCelK=      1 NCelE2=     1 NClLst=     1 CellRange=     0.0.
 One-electron integrals computed using PRISM.
   1 Symmetry operations used in ECPInt.
 ECPInt:  NShTT= 1316253 NPrTT= 3826671 LenC2=  686019 LenP2D= 1249475.
 LDataN:  DoStor=T MaxTD1= 7 Len=  274
 Number of processors reduced to  10 by ecpmxn.
 NBasis=  4392 RedAO= T EigKep=  1.75D-06  NBF=  4392
 NBsUse=  4392 1.00D-06 EigRej= -1.00D+00 NBFU=  4392
 Precomputing XC quadrature grid using
 IXCGrd= 4 IRadAn=           5 IRanWt=          -1 IRanGd=           0 AccXCQ= 0.00D+00.
 Defaulting to unpruned grid for atomic number  53.
 Generated NRdTot=       0 NPtTot=           0 NUsed=           0 NTot=          32
 NSgBfM=  3345  3278  3316  3330  3345 MxSgAt=   176 MxSgA2=   176.
 Leave Link  302 at Wed Feb 26 01:44:49 2025, MaxMem=  6442450944 cpu:            1039.7 elap:              34.7
 (Enter /ihome/crc/install/gaussian/c01/avx2/tar/g16/l303.exe)
 DipDrv:  MaxL=1.
 Leave Link  303 at Wed Feb 26 01:44:50 2025, MaxMem=  6442450944 cpu:              27.1 elap:               1.2
 (Enter /ihome/crc/install/gaussian/c01/avx2/tar/g16/l401.exe)
 ExpMin= 7.49D-02 ExpMax= 6.07D+04 ExpMxC= 2.07D+03 IAcc=3 IRadAn=         5 AccDes= 0.00D+00
 Harris functional with IExCor=  402 and IRadAn=       5 diagonalized for initial guess.
 HarFok:  IExCor=  402 AccDes= 0.00D+00 IRadAn=         5 IDoV= 1 UseB2=F ITyADJ=14
 ICtDFT=  3500011 ScaDFX=  1.000000  1.000000  1.000000  1.000000
 Defaulting to unpruned grid for atomic number  53.
 FoFCou: FMM=F IPFlag=           0 FMFlag=      100000 FMFlg1=        2001
         NFxFlg=           0 DoJE=T BraDBF=F KetDBF=T FulRan=T
         wScrn=  0.000000 ICntrl=       500 IOpCl=  0 I1Cent=   200000004 NGrid=           0
         NMat0=    1 NMatS0=      1 NMatT0=    0 NMatD0=    1 NMtDS0=    0 NMtDT0=    0
 Symmetry not used in FoFCou.
 Harris En= -6142.00479626837    
 JPrj=0 DoOrth=F DoCkMO=F.
 Leave Link  401 at Wed Feb 26 01:45:18 2025, MaxMem=  6442450944 cpu:             871.7 elap:              27.8
 (Enter /ihome/crc/install/gaussian/c01/avx2/tar/g16/l502.exe)
 Two-electron integral symmetry not used.
 Closed shell SCF:
 Using DIIS extrapolation, IDIIS=  1040.
 NGot=  6442450944 LenX=  6391894960 LenY=  6366709618
 Requested convergence on RMS density matrix=1.00D-08 within 128 cycles.
 Requested convergence on MAX density matrix=1.00D-06.
 Requested convergence on             energy=1.00D-06.
 No special actions if energy rises.
 Fock matrices will be formed incrementally for  20 cycles.

 Cycle   1  Pass 1  IDiag  1:
 FoFJK:  IHMeth= 1 ICntrl=       0 DoSepK=F KAlg= 0 I1Cent=           0 FoldK=F
 IRaf= 460000000 NMat=       1 IRICut=       1 DoRegI=T DoRafI=F ISym2E= 0 IDoP0=0 IntGTp=1.
 FoFCou: FMM=T IPFlag=           0 FMFlag=      100000 FMFlg1=        2001
         NFxFlg=           0 DoJE=F BraDBF=F KetDBF=F FulRan=T
         wScrn=  0.000000 ICntrl=         0 IOpCl=  0 I1Cent=           0 NGrid=           0
         NMat0=    1 NMatS0=      1 NMatT0=    0 NMatD0=    1 NMtDS0=    0 NMtDT0=    0
 Symmetry not used in FoFCou.
 FMM levels:  10  Number of levels for PrismC:   9
 Defaulting to unpruned grid for atomic number  53.
 Defaulting to unpruned grid for atomic number  53.
 Defaulting to unpruned grid for atomic number  53.
 Defaulting to unpruned grid for atomic number  53.
 Defaulting to unpruned grid for atomic number  53.
 Defaulting to unpruned grid for atomic number  53.
 Defaulting to unpruned grid for atomic number  53.
 Defaulting to unpruned grid for atomic number  53.
 Defaulting to unpruned grid for atomic number  53.
 Defaulting to unpruned grid for atomic number  53.
 Defaulting to unpruned grid for atomic number  53.
 Defaulting to unpruned grid for atomic number  53.
 Defaulting to unpruned grid for atomic number  53.
 Defaulting to unpruned grid for atomic number  53.
 Defaulting to unpruned grid for atomic number  53.
 Defaulting to unpruned grid for atomic number  53.
 Defaulting to unpruned grid for atomic number  53.
 Defaulting to unpruned grid for atomic number  53.
 Defaulting to unpruned grid for atomic number  53.
 Defaulting to unpruned grid for atomic number  53.
 Defaulting to unpruned grid for atomic number  53.
 Defaulting to unpruned grid for atomic number  53.
 Defaulting to unpruned grid for atomic number  53.
 Defaulting to unpruned grid for atomic number  53.
 Defaulting to unpruned grid for atomic number  53.
 Defaulting to unpruned grid for atomic number  53.
 Defaulting to unpruned grid for atomic number  53.
 Defaulting to unpruned grid for atomic number  53.
 Defaulting to unpruned grid for atomic number  53.
 Defaulting to unpruned grid for atomic number  53.
 Defaulting to unpruned grid for atomic number  53.
 Defaulting to unpruned grid for atomic number  53.
 Inv3:  Mode=1 IEnd=   439520448.
 Iteration    1 A*A^-1 deviation from unit magnitude is 4.00D-15 for   8186.
 Iteration    1 A*A^-1 deviation from orthogonality  is 2.85D-15 for   4421   2417.
 Iteration    1 A^-1*A deviation from unit magnitude is 3.77D-15 for    237.
 Iteration    1 A^-1*A deviation from orthogonality  is 5.28D-15 for   5382   5320.
 E= -6139.34966000836    
 DIIS: error= 1.22D-02 at cycle   1 NSaved=   1.
 NSaved= 1 IEnMin= 1 EnMin= -6139.34966000836     IErMin= 1 ErrMin= 1.22D-02
 ErrMax= 1.22D-02  0.00D+00 EMaxC= 1.00D-01 BMatC= 3.26D+00 BMatP= 3.26D+00
 IDIUse=3 WtCom= 8.78D-01 WtEn= 1.22D-01
 Coeff-Com:  0.100D+01
 Coeff-En:   0.100D+01
 Coeff:      0.100D+01
 Gap=     0.305 Goal=   None    Shift=    0.000
 GapD=    0.305 DampG=1.000 DampE=0.500 DampFc=0.5000 IDamp=-1.
 Damping current iteration by 5.00D-01
 RMSDP=2.06D-03 MaxDP=9.49D-01              OVMax= 2.70D-01

 Cycle   2  Pass 1  IDiag  1:
 RMSU=  1.02D-03    CP:  1.05D+00
 E= -6140.24262090673     Delta-E=       -0.892960898371 Rises=F Damp=T
 DIIS: error= 3.73D-03 at cycle   2 NSaved=   2.
 NSaved= 2 IEnMin= 2 EnMin= -6140.24262090673     IErMin= 2 ErrMin= 3.73D-03
 ErrMax= 3.73D-03  0.00D+00 EMaxC= 1.00D-01 BMatC= 3.96D-01 BMatP= 3.26D+00
 IDIUse=3 WtCom= 9.63D-01 WtEn= 3.73D-02
 Coeff-Com:  0.152D+00 0.848D+00
 Coeff-En:   0.268D+00 0.732D+00
 Coeff:      0.156D+00 0.844D+00
 Gap=     0.104 Goal=   None    Shift=    0.000
 RMSDP=7.64D-04 MaxDP=4.50D-01 DE=-8.93D-01 OVMax= 2.20D-01

 Cycle   3  Pass 1  IDiag  1:
 RMSU=  5.47D-04    CP:  9.96D-01  4.98D-01
 E= -6141.59249425838     Delta-E=       -1.349873351654 Rises=F Damp=F
 DIIS: error= 5.61D-03 at cycle   3 NSaved=   3.
 NSaved= 3 IEnMin= 3 EnMin= -6141.59249425838     IErMin= 2 ErrMin= 3.73D-03
 ErrMax= 5.61D-03  0.00D+00 EMaxC= 1.00D-01 BMatC= 4.77D-01 BMatP= 3.96D-01
 IDIUse=3 WtCom= 1.18D-01 WtEn= 8.82D-01
 Coeff-Com:  0.499D-02 0.525D+00 0.470D+00
 Coeff-En:   0.000D+00 0.000D+00 0.100D+01
 Coeff:      0.588D-03 0.619D-01 0.938D+00
 Gap=     0.187 Goal=   None    Shift=    0.000
 RMSDP=1.10D-03 MaxDP=1.09D+00 DE=-1.35D+00 OVMax= 2.71D-01

 Cycle   4  Pass 1  IDiag  1:
 RMSU=  7.90D-04    CP:  1.01D+00  8.52D-01 -2.36D-01
 E= -6140.00777017431     Delta-E=        1.584724084070 Rises=F Damp=F
 DIIS: error= 1.37D-02 at cycle   4 NSaved=   4.
 NSaved= 4 IEnMin= 3 EnMin= -6141.59249425838     IErMin= 2 ErrMin= 3.73D-03
 ErrMax= 1.37D-02  0.00D+00 EMaxC= 1.00D-01 BMatC= 2.46D+00 BMatP= 3.96D-01
 IDIUse=2 WtCom= 0.00D+00 WtEn= 1.00D+00
 Coeff-En:   0.000D+00 0.000D+00 0.773D+00 0.227D+00
 Coeff:      0.000D+00 0.000D+00 0.773D+00 0.227D+00
 Gap=     0.159 Goal=   None    Shift=    0.000
 RMSDP=7.08D-04 MaxDP=8.77D-01 DE= 1.58D+00 OVMax= 1.51D-01

 Cycle   5  Pass 1  IDiag  1:
 RMSU=  2.05D-04    CP:  9.95D-01  5.91D-01  4.11D-01  3.55D-01
 E= -6141.87816245744     Delta-E=       -1.870392283130 Rises=F Damp=F
 DIIS: error= 3.09D-03 at cycle   5 NSaved=   5.
 NSaved= 5 IEnMin= 5 EnMin= -6141.87816245744     IErMin= 5 ErrMin= 3.09D-03
 ErrMax= 3.09D-03  0.00D+00 EMaxC= 1.00D-01 BMatC= 1.47D-01 BMatP= 3.96D-01
 IDIUse=3 WtCom= 9.69D-01 WtEn= 3.09D-02
 Coeff-Com:  0.747D-02-0.535D-02 0.330D+00-0.185D-01 0.686D+00
 Coeff-En:   0.000D+00 0.000D+00 0.279D+00 0.000D+00 0.721D+00
 Coeff:      0.724D-02-0.519D-02 0.329D+00-0.179D-01 0.687D+00
 Gap=     0.106 Goal=   None    Shift=    0.000
 RMSDP=1.68D-04 MaxDP=1.18D-01 DE=-1.87D+00 OVMax= 4.24D-02

 Cycle   6  Pass 1  IDiag  1:
 RMSU=  5.22D-05    CP:  9.94D-01  5.46D-01  6.06D-01  2.26D-01  8.12D-01
 E= -6141.99489332822     Delta-E=       -0.116730870774 Rises=F Damp=F
 DIIS: error= 5.27D-04 at cycle   6 NSaved=   6.
 NSaved= 6 IEnMin= 6 EnMin= -6141.99489332822     IErMin= 6 ErrMin= 5.27D-04
 ErrMax= 5.27D-04  0.00D+00 EMaxC= 1.00D-01 BMatC= 5.19D-03 BMatP= 1.47D-01
 IDIUse=3 WtCom= 9.95D-01 WtEn= 5.27D-03
 Coeff-Com:  0.117D-02-0.287D-02 0.155D+00-0.459D-01 0.461D+00 0.432D+00
 Coeff-En:   0.000D+00 0.000D+00 0.000D+00 0.000D+00 0.000D+00 0.100D+01
 Coeff:      0.116D-02-0.286D-02 0.154D+00-0.456D-01 0.458D+00 0.435D+00
 Gap=     0.107 Goal=   None    Shift=    0.000
 RMSDP=2.90D-05 MaxDP=1.23D-02 DE=-1.17D-01 OVMax= 1.09D-02

 Cycle   7  Pass 1  IDiag  1:
 RMSU=  1.74D-05    CP:  9.94D-01  5.46D-01  6.13D-01  2.14D-01  8.43D-01
                    CP:  6.22D-01
 E= -6141.99968890303     Delta-E=       -0.004795574816 Rises=F Damp=F
 DIIS: error= 1.08D-04 at cycle   7 NSaved=   7.
 NSaved= 7 IEnMin= 7 EnMin= -6141.99968890303     IErMin= 7 ErrMin= 1.08D-04
 ErrMax= 1.08D-04  0.00D+00 EMaxC= 1.00D-01 BMatC= 2.57D-04 BMatP= 5.19D-03
 IDIUse=3 WtCom= 9.99D-01 WtEn= 1.08D-03
 Coeff-Com:  0.239D-03 0.266D-03 0.708D-01-0.272D-01 0.223D+00 0.247D+00
 Coeff-Com:  0.486D+00
 Coeff-En:   0.000D+00 0.000D+00 0.000D+00 0.000D+00 0.000D+00 0.000D+00
 Coeff-En:   0.100D+01
 Coeff:      0.239D-03 0.266D-03 0.707D-01-0.271D-01 0.223D+00 0.247D+00
 Coeff:      0.486D+00
 Gap=     0.107 Goal=   None    Shift=    0.000
 RMSDP=6.82D-06 MaxDP=2.36D-03 DE=-4.80D-03 OVMax= 2.64D-03

 Cycle   8  Pass 1  IDiag  1:
 RMSU=  5.94D-06    CP:  9.94D-01  5.47D-01  6.14D-01  2.13D-01  8.43D-01
                    CP:  6.07D-01  8.33D-01
 E= -6141.99989630143     Delta-E=       -0.000207398392 Rises=F Damp=F
 DIIS: error= 4.28D-05 at cycle   8 NSaved=   8.
 NSaved= 8 IEnMin= 8 EnMin= -6141.99989630143     IErMin= 8 ErrMin= 4.28D-05
 ErrMax= 4.28D-05  0.00D+00 EMaxC= 1.00D-01 BMatC= 3.09D-05 BMatP= 2.57D-04
 IDIUse=1 WtCom= 1.00D+00 WtEn= 0.00D+00
 Coeff-Com:  0.154D-03 0.413D-04 0.169D-01-0.787D-02 0.521D-01 0.639D-01
 Coeff-Com:  0.269D+00 0.606D+00
 Coeff:      0.154D-03 0.413D-04 0.169D-01-0.787D-02 0.521D-01 0.639D-01
 Coeff:      0.269D+00 0.606D+00
 Gap=     0.107 Goal=   None    Shift=    0.000
 RMSDP=2.53D-06 MaxDP=1.44D-03 DE=-2.07D-04 OVMax= 8.37D-04

 Cycle   9  Pass 1  IDiag  1:
 RMSU=  1.81D-06    CP:  9.94D-01  5.47D-01  6.15D-01  2.12D-01  8.42D-01
                    CP:  5.99D-01  8.55D-01  8.14D-01
 E= -6141.99992055522     Delta-E=       -0.000024253794 Rises=F Damp=F
 DIIS: error= 1.65D-05 at cycle   9 NSaved=   9.
 NSaved= 9 IEnMin= 9 EnMin= -6141.99992055522     IErMin= 9 ErrMin= 1.65D-05
 ErrMax= 1.65D-05  0.00D+00 EMaxC= 1.00D-01 BMatC= 4.98D-06 BMatP= 3.09D-05
 IDIUse=1 WtCom= 1.00D+00 WtEn= 0.00D+00
 Coeff-Com:  0.110D-03-0.283D-03 0.276D-02-0.143D-02 0.620D-02 0.100D-01
 Coeff-Com:  0.105D+00 0.374D+00 0.503D+00
 Coeff:      0.110D-03-0.283D-03 0.276D-02-0.143D-02 0.620D-02 0.100D-01
 Coeff:      0.105D+00 0.374D+00 0.503D+00
 Gap=     0.107 Goal=   None    Shift=    0.000
 RMSDP=8.85D-07 MaxDP=2.73D-04 DE=-2.43D-05 OVMax= 3.30D-04

 Cycle  10  Pass 1  IDiag  1:
 RMSU=  7.27D-07    CP:  9.94D-01  5.46D-01  6.16D-01  2.12D-01  8.42D-01
                    CP:  6.01D-01  8.56D-01  8.25D-01  7.70D-01
 E= -6141.99992484881     Delta-E=       -0.000004293594 Rises=F Damp=F
 DIIS: error= 5.51D-06 at cycle  10 NSaved=  10.
 NSaved=10 IEnMin=10 EnMin= -6141.99992484881     IErMin=10 ErrMin= 5.51D-06
 ErrMax= 5.51D-06  0.00D+00 EMaxC= 1.00D-01 BMatC= 4.28D-07 BMatP= 4.98D-06
 IDIUse=1 WtCom= 1.00D+00 WtEn= 0.00D+00
 Coeff-Com:  0.434D-04-0.189D-03 0.160D-03-0.178D-03-0.603D-03 0.834D-03
 Coeff-Com:  0.351D-01 0.154D+00 0.292D+00 0.518D+00
 Coeff:      0.434D-04-0.189D-03 0.160D-03-0.178D-03-0.603D-03 0.834D-03
 Coeff:      0.351D-01 0.154D+00 0.292D+00 0.518D+00
 Gap=     0.107 Goal=   None    Shift=    0.000
 RMSDP=3.90D-07 MaxDP=1.42D-04 DE=-4.29D-06 OVMax= 1.25D-04

 Cycle  11  Pass 1  IDiag  1:
 RMSU=  2.31D-07    CP:  9.94D-01  5.47D-01  6.16D-01  2.12D-01  8.42D-01
                    CP:  6.03D-01  8.61D-01  8.41D-01  7.94D-01  7.30D-01
 E= -6141.99992518561     Delta-E=       -0.000000336800 Rises=F Damp=F
 DIIS: error= 2.74D-06 at cycle  11 NSaved=  11.
 NSaved=11 IEnMin=11 EnMin= -6141.99992518561     IErMin=11 ErrMin= 2.74D-06
 ErrMax= 2.74D-06  0.00D+00 EMaxC= 1.00D-01 BMatC= 6.98D-08 BMatP= 4.28D-07
 IDIUse=1 WtCom= 1.00D+00 WtEn= 0.00D+00
 Coeff-Com:  0.116D-04-0.761D-04-0.307D-03 0.823D-04-0.133D-02-0.717D-03
 Coeff-Com:  0.999D-02 0.548D-01 0.128D+00 0.324D+00 0.486D+00
 Coeff:      0.116D-04-0.761D-04-0.307D-03 0.823D-04-0.133D-02-0.717D-03
 Coeff:      0.999D-02 0.548D-01 0.128D+00 0.324D+00 0.486D+00
 Gap=     0.107 Goal=   None    Shift=    0.000
 RMSDP=1.33D-07 MaxDP=3.26D-05 DE=-3.37D-07 OVMax= 6.25D-05

 Cycle  12  Pass 1  IDiag  1:
 RMSU=  1.13D-07    CP:  9.94D-01  5.47D-01  6.16D-01  2.12D-01  8.42D-01
                    CP:  6.03D-01  8.64D-01  8.41D-01  7.88D-01  7.78D-01
                    CP:  8.55D-01
 E= -6141.99992524423     Delta-E=       -0.000000058615 Rises=F Damp=F
 DIIS: error= 1.12D-06 at cycle  12 NSaved=  12.
 NSaved=12 IEnMin=12 EnMin= -6141.99992524423     IErMin=12 ErrMin= 1.12D-06
 ErrMax= 1.12D-06  0.00D+00 EMaxC= 1.00D-01 BMatC= 9.73D-09 BMatP= 6.98D-08
 IDIUse=1 WtCom= 1.00D+00 WtEn= 0.00D+00
 Coeff-Com: -0.187D-05-0.874D-05-0.240D-03 0.726D-04-0.751D-03-0.497D-03
 Coeff-Com:  0.132D-02 0.118D-01 0.369D-01 0.116D+00 0.300D+00 0.536D+00
 Coeff:     -0.187D-05-0.874D-05-0.240D-03 0.726D-04-0.751D-03-0.497D-03
 Coeff:      0.132D-02 0.118D-01 0.369D-01 0.116D+00 0.300D+00 0.536D+00
 Gap=     0.107 Goal=   None    Shift=    0.000
 RMSDP=5.97D-08 MaxDP=2.81D-05 DE=-5.86D-08 OVMax= 2.32D-05

 Cycle  13  Pass 1  IDiag  1:
 RMSU=  3.45D-08    CP:  9.94D-01  5.47D-01  6.16D-01  2.12D-01  8.42D-01
                    CP:  6.03D-01  8.63D-01  8.42D-01  7.93D-01  7.84D-01
                    CP:  8.83D-01  7.03D-01
 E= -6141.99992525370     Delta-E=       -0.000000009473 Rises=F Damp=F
 DIIS: error= 3.58D-07 at cycle  13 NSaved=  13.
 NSaved=13 IEnMin=13 EnMin= -6141.99992525370     IErMin=13 ErrMin= 3.58D-07
 ErrMax= 3.58D-07  0.00D+00 EMaxC= 1.00D-01 BMatC= 1.42D-09 BMatP= 9.73D-09
 IDIUse=1 WtCom= 1.00D+00 WtEn= 0.00D+00
 Coeff-Com: -0.405D-05 0.804D-05-0.971D-04 0.271D-04-0.215D-03-0.137D-03
 Coeff-Com: -0.715D-03-0.177D-02 0.153D-02 0.164D-01 0.106D+00 0.328D+00
 Coeff-Com:  0.550D+00
 Coeff:     -0.405D-05 0.804D-05-0.971D-04 0.271D-04-0.215D-03-0.137D-03
 Coeff:     -0.715D-03-0.177D-02 0.153D-02 0.164D-01 0.106D+00 0.328D+00
 Coeff:      0.550D+00
 Gap=     0.107 Goal=   None    Shift=    0.000
 RMSDP=1.92D-08 MaxDP=5.77D-06 DE=-9.47D-09 OVMax= 9.84D-06

 Cycle  14  Pass 1  IDiag  1:
 RMSU=  1.51D-08    CP:  9.94D-01  5.47D-01  6.16D-01  2.12D-01  8.42D-01
                    CP:  6.03D-01  8.63D-01  8.41D-01  7.95D-01  7.87D-01
                    CP:  8.91D-01  7.35D-01  8.39D-01
 E= -6141.99992525516     Delta-E=       -0.000000001459 Rises=F Damp=F
 DIIS: error= 1.36D-07 at cycle  14 NSaved=  14.
 NSaved=14 IEnMin=14 EnMin= -6141.99992525516     IErMin=14 ErrMin= 1.36D-07
 ErrMax= 1.36D-07  0.00D+00 EMaxC= 1.00D-01 BMatC= 2.00D-10 BMatP= 1.42D-09
 IDIUse=1 WtCom= 1.00D+00 WtEn= 0.00D+00
 Coeff-Com: -0.227D-05 0.607D-05-0.312D-04 0.834D-05-0.464D-04-0.328D-04
 Coeff-Com: -0.529D-03-0.237D-02-0.379D-02-0.640D-02 0.195D-01 0.117D+00
 Coeff-Com:  0.337D+00 0.539D+00
 Coeff:     -0.227D-05 0.607D-05-0.312D-04 0.834D-05-0.464D-04-0.328D-04
 Coeff:     -0.529D-03-0.237D-02-0.379D-02-0.640D-02 0.195D-01 0.117D+00
 Coeff:      0.337D+00 0.539D+00
 Gap=     0.107 Goal=   None    Shift=    0.000
 RMSDP=8.04D-09 MaxDP=3.18D-06 DE=-1.46D-09 OVMax= 2.78D-06

 Cycle  15  Pass 1  IDiag  1:
 RMSU=  5.03D-09    CP:  9.94D-01  5.47D-01  6.16D-01  2.12D-01  8.42D-01
                    CP:  6.03D-01  8.63D-01  8.42D-01  7.95D-01  7.87D-01
                    CP:  9.03D-01  7.55D-01  8.58D-01  8.31D-01
 E= -6141.99992525618     Delta-E=       -0.000000001015 Rises=F Damp=F
 DIIS: error= 4.12D-08 at cycle  15 NSaved=  15.
 NSaved=15 IEnMin=15 EnMin= -6141.99992525618     IErMin=15 ErrMin= 4.12D-08
 ErrMax= 4.12D-08  0.00D+00 EMaxC= 1.00D-01 BMatC= 2.53D-11 BMatP= 2.00D-10
 IDIUse=1 WtCom= 1.00D+00 WtEn= 0.00D+00
 Coeff-Com: -0.714D-06 0.244D-05-0.280D-05 0.206D-06 0.909D-05 0.330D-05
 Coeff-Com: -0.192D-03-0.116D-02-0.264D-02-0.657D-02-0.623D-02 0.161D-01
 Coeff-Com:  0.117D+00 0.311D+00 0.572D+00
 Coeff:     -0.714D-06 0.244D-05-0.280D-05 0.206D-06 0.909D-05 0.330D-05
 Coeff:     -0.192D-03-0.116D-02-0.264D-02-0.657D-02-0.623D-02 0.161D-01
 Coeff:      0.117D+00 0.311D+00 0.572D+00
 Gap=     0.107 Goal=   None    Shift=    0.000
 RMSDP=2.38D-09 MaxDP=4.00D-07 DE=-1.01D-09 OVMax= 1.39D-06

 Error on total polarization charges =  0.09394
 SCF Done:  E(RB3LYP) =  -6141.99992526     A.U. after   15 cycles
            NFock= 15  Conv=0.24D-08     -V/T= 2.0356
 KE= 5.931122491415D+03 PE=-6.730120776204D+04 EE= 2.873903192274D+04
 SMD-CDS (non-electrostatic) energy       (kcal/mol) =     -20.28
 (included in total energy above)
 Leave Link  502 at Wed Feb 26 03:19:29 2025, MaxMem=  6442450944 cpu:          179160.6 elap:            5651.4
 (Enter /ihome/crc/install/gaussian/c01/avx2/tar/g16/l601.exe)
 Copying SCF densities to generalized density rwf, IOpCl= 0 IROHF=0.
 Hyperfine terms turned off by default for NAtoms > 100.

 **********************************************************************

            Population analysis using the SCF Density.

 **********************************************************************

 Alpha  occ. eigenvalues --  -89.02820 -89.02644 -24.71858 -24.71624 -24.71451
 Alpha  occ. eigenvalues --  -24.71440 -24.71217 -24.70991 -24.69975 -24.69143
 Alpha  occ. eigenvalues --  -19.15313 -19.14047 -19.13211 -19.10610 -19.09110
 Alpha  occ. eigenvalues --  -19.09008 -19.08881 -19.08680 -14.39233 -14.34335
 Alpha  occ. eigenvalues --  -14.33618 -14.31918 -14.29518 -14.27926 -10.42532
 Alpha  occ. eigenvalues --  -10.42205 -10.28833 -10.28026 -10.26807 -10.26496
 Alpha  occ. eigenvalues --  -10.26492 -10.26028 -10.25650 -10.22678 -10.22592
 Alpha  occ. eigenvalues --  -10.22503 -10.22110 -10.21888 -10.21739 -10.21737
 Alpha  occ. eigenvalues --  -10.21663 -10.21595 -10.21517 -10.21322 -10.21312
 Alpha  occ. eigenvalues --  -10.21243 -10.20777 -10.20633 -10.20516 -10.20447
 Alpha  occ. eigenvalues --  -10.20348 -10.20301 -10.20277 -10.20044 -10.19962
 Alpha  occ. eigenvalues --  -10.19903 -10.19854 -10.19830 -10.19425 -10.19414
 Alpha  occ. eigenvalues --  -10.19396 -10.19334 -10.19138 -10.19108 -10.19067
 Alpha  occ. eigenvalues --  -10.18995 -10.18983 -10.18934 -10.18812 -10.18623
 Alpha  occ. eigenvalues --  -10.18563 -10.18529 -10.18487 -10.18420 -10.18382
 Alpha  occ. eigenvalues --  -10.18282 -10.18278 -10.18226 -10.18217 -10.18092
 Alpha  occ. eigenvalues --  -10.17959 -10.17918 -10.17914 -10.17914 -10.17839
 Alpha  occ. eigenvalues --  -10.17837 -10.17803 -10.17801 -10.17799 -10.17796
 Alpha  occ. eigenvalues --  -10.17792 -10.17782 -10.17754 -10.17753 -10.17733
 Alpha  occ. eigenvalues --  -10.17726 -10.17725 -10.17704 -10.17650 -10.17548
 Alpha  occ. eigenvalues --  -10.17439 -10.17285 -10.16840 -10.16743 -10.16567
 Alpha  occ. eigenvalues --  -10.16545 -10.16262 -10.16120 -10.16063 -10.15404
 Alpha  occ. eigenvalues --   -8.07334  -8.07143  -6.82896  -6.03653  -6.03567
 Alpha  occ. eigenvalues --   -6.03547  -6.03464  -6.03383  -6.03352  -4.85556
 Alpha  occ. eigenvalues --   -4.84049  -4.84041  -1.90293  -1.89847  -1.89842
 Alpha  occ. eigenvalues --   -1.88567  -1.88566  -1.32555  -1.32207  -1.23929
 Alpha  occ. eigenvalues --   -1.23521  -1.23274  -1.23209  -1.23161  -1.22809
 Alpha  occ. eigenvalues --   -1.10870  -1.09361  -1.08357  -1.06142  -1.05060
 Alpha  occ. eigenvalues --   -1.04500  -1.01692  -0.98630  -0.98491  -0.98434
 Alpha  occ. eigenvalues --   -0.95628  -0.93036  -0.92813  -0.90066  -0.88594
 Alpha  occ. eigenvalues --   -0.88402  -0.88075  -0.87855  -0.87770  -0.87683
 Alpha  occ. eigenvalues --   -0.85388  -0.84455  -0.84021  -0.83913  -0.83770
 Alpha  occ. eigenvalues --   -0.82193  -0.81464  -0.80832  -0.79605  -0.79532
 Alpha  occ. eigenvalues --   -0.79187  -0.79150  -0.78651  -0.78232  -0.78038
 Alpha  occ. eigenvalues --   -0.77909  -0.77875  -0.77763  -0.76890  -0.76387
 Alpha  occ. eigenvalues --   -0.76250  -0.75833  -0.74920  -0.74540  -0.74518
 Alpha  occ. eigenvalues --   -0.74207  -0.73622  -0.73416  -0.72825  -0.72418
 Alpha  occ. eigenvalues --   -0.72221  -0.71803  -0.71224  -0.70951  -0.70604
 Alpha  occ. eigenvalues --   -0.70274  -0.69892  -0.68769  -0.68327  -0.67542
 Alpha  occ. eigenvalues --   -0.66873  -0.66734  -0.65624  -0.65013  -0.64752
 Alpha  occ. eigenvalues --   -0.64692  -0.64583  -0.63640  -0.63551  -0.63411
 Alpha  occ. eigenvalues --   -0.63250  -0.62973  -0.62921  -0.62553  -0.62062
 Alpha  occ. eigenvalues --   -0.61888  -0.61465  -0.60745  -0.60414  -0.60178
 Alpha  occ. eigenvalues --   -0.60172  -0.59844  -0.59765  -0.59574  -0.59451
 Alpha  occ. eigenvalues --   -0.59246  -0.58567  -0.58219  -0.58177  -0.58009
 Alpha  occ. eigenvalues --   -0.57895  -0.57663  -0.57430  -0.56622  -0.56519
 Alpha  occ. eigenvalues --   -0.55074  -0.54890  -0.54491  -0.54404  -0.54396
 Alpha  occ. eigenvalues --   -0.53283  -0.53008  -0.52949  -0.52426  -0.51901
 Alpha  occ. eigenvalues --   -0.51843  -0.51343  -0.51113  -0.51070  -0.50866
 Alpha  occ. eigenvalues --   -0.50757  -0.50299  -0.49799  -0.49727  -0.49616
 Alpha  occ. eigenvalues --   -0.49393  -0.49263  -0.49199  -0.49076  -0.48919
 Alpha  occ. eigenvalues --   -0.48450  -0.48263  -0.48224  -0.48099  -0.48027
 Alpha  occ. eigenvalues --   -0.48009  -0.47824  -0.47743  -0.47669  -0.47540
 Alpha  occ. eigenvalues --   -0.47501  -0.47317  -0.47279  -0.47032  -0.46963
 Alpha  occ. eigenvalues --   -0.46806  -0.46683  -0.46508  -0.46396  -0.46195
 Alpha  occ. eigenvalues --   -0.45926  -0.45805  -0.45450  -0.45382  -0.45325
 Alpha  occ. eigenvalues --   -0.45278  -0.45067  -0.44781  -0.44545  -0.44445
 Alpha  occ. eigenvalues --   -0.44396  -0.44368  -0.44289  -0.44255  -0.43965
 Alpha  occ. eigenvalues --   -0.43871  -0.43847  -0.43498  -0.43417  -0.42950
 Alpha  occ. eigenvalues --   -0.42889  -0.42823  -0.42749  -0.42698  -0.42605
 Alpha  occ. eigenvalues --   -0.42337  -0.42269  -0.42135  -0.41950  -0.41818
 Alpha  occ. eigenvalues --   -0.41812  -0.41567  -0.41525  -0.41386  -0.41286
 Alpha  occ. eigenvalues --   -0.41128  -0.41100  -0.41091  -0.40772  -0.40737
 Alpha  occ. eigenvalues --   -0.40455  -0.40375  -0.40244  -0.40176  -0.40092
 Alpha  occ. eigenvalues --   -0.40047  -0.39935  -0.39899  -0.39571  -0.39268
 Alpha  occ. eigenvalues --   -0.39102  -0.38874  -0.38830  -0.38646  -0.37991
 Alpha  occ. eigenvalues --   -0.37879  -0.37845  -0.37816  -0.37574  -0.37422
 Alpha  occ. eigenvalues --   -0.37331  -0.37127  -0.36997  -0.36876  -0.36796
 Alpha  occ. eigenvalues --   -0.36768  -0.36532  -0.36404  -0.36316  -0.36076
 Alpha  occ. eigenvalues --   -0.35969  -0.35933  -0.35888  -0.35694  -0.35565
 Alpha  occ. eigenvalues --   -0.35529  -0.35457  -0.35118  -0.34964  -0.34744
 Alpha  occ. eigenvalues --   -0.34478  -0.34436  -0.34261  -0.33910  -0.33719
 Alpha  occ. eigenvalues --   -0.33431  -0.33347  -0.33140  -0.32948  -0.32291
 Alpha  occ. eigenvalues --   -0.32201  -0.32010  -0.31513  -0.31236  -0.30928
 Alpha  occ. eigenvalues --   -0.30779  -0.30630  -0.29993  -0.29907  -0.29618
 Alpha  occ. eigenvalues --   -0.28912  -0.28801  -0.28632  -0.28341  -0.28187
 Alpha  occ. eigenvalues --   -0.28057  -0.27853  -0.27642  -0.27626  -0.27465
 Alpha  occ. eigenvalues --   -0.27149  -0.27068  -0.26997  -0.26720  -0.26585
 Alpha  occ. eigenvalues --   -0.26377  -0.25908  -0.25875  -0.25792  -0.25365
 Alpha  occ. eigenvalues --   -0.24967  -0.24787  -0.24468  -0.24398  -0.24261
 Alpha  occ. eigenvalues --   -0.24002  -0.23804  -0.23549  -0.23262  -0.22928
 Alpha  occ. eigenvalues --   -0.21762  -0.21333  -0.20698
 Alpha virt. eigenvalues --   -0.09964  -0.07136  -0.06735  -0.05483  -0.05210
 Alpha virt. eigenvalues --   -0.04925  -0.03986  -0.03481  -0.03303  -0.02878
 Alpha virt. eigenvalues --   -0.02742  -0.02686  -0.02232  -0.01956  -0.01747
 Alpha virt. eigenvalues --   -0.01637  -0.01175  -0.00462  -0.00024   0.00340
 Alpha virt. eigenvalues --    0.00473   0.00853   0.01001   0.01288   0.02948
 Alpha virt. eigenvalues --    0.03602   0.03689   0.03824   0.04204   0.04441
 Alpha virt. eigenvalues --    0.04625   0.04905   0.05085   0.05276   0.05419
 Alpha virt. eigenvalues --    0.05630   0.05699   0.05891   0.06083   0.06169
 Alpha virt. eigenvalues --    0.06266   0.06501   0.06603   0.06881   0.07112
 Alpha virt. eigenvalues --    0.07168   0.07303   0.07407   0.07519   0.07718
 Alpha virt. eigenvalues --    0.07897   0.08014   0.08127   0.08279   0.08345
 Alpha virt. eigenvalues --    0.08609   0.08759   0.08918   0.09117   0.09229
 Alpha virt. eigenvalues --    0.09378   0.09536   0.09574   0.09739   0.09878
 Alpha virt. eigenvalues --    0.09934   0.09975   0.10121   0.10165   0.10304
 Alpha virt. eigenvalues --    0.10404   0.10512   0.10581   0.10693   0.10903
 Alpha virt. eigenvalues --    0.10968   0.11015   0.11104   0.11208   0.11392
 Alpha virt. eigenvalues --    0.11435   0.11663   0.11738   0.11861   0.11925
 Alpha virt. eigenvalues --    0.12059   0.12229   0.12364   0.12518   0.12598
 Alpha virt. eigenvalues --    0.12721   0.12757   0.12851   0.13056   0.13215
 Alpha virt. eigenvalues --    0.13234   0.13342   0.13394   0.13629   0.13698
 Alpha virt. eigenvalues --    0.13845   0.14002   0.14101   0.14137   0.14245
 Alpha virt. eigenvalues --    0.14397   0.14502   0.14645   0.14754   0.14830
 Alpha virt. eigenvalues --    0.14969   0.15049   0.15125   0.15365   0.15417
 Alpha virt. eigenvalues --    0.15472   0.15591   0.15609   0.15787   0.15885
 Alpha virt. eigenvalues --    0.15979   0.16073   0.16280   0.16392   0.16558
 Alpha virt. eigenvalues --    0.16682   0.16767   0.16897   0.16982   0.17155
 Alpha virt. eigenvalues --    0.17225   0.17239   0.17447   0.17500   0.17701
 Alpha virt. eigenvalues --    0.17805   0.17879   0.18026   0.18270   0.18332
 Alpha virt. eigenvalues --    0.18405   0.18494   0.18728   0.18785   0.18835
 Alpha virt. eigenvalues --    0.18977   0.19162   0.19335   0.19425   0.19651
 Alpha virt. eigenvalues --    0.19832   0.19912   0.20034   0.20131   0.20189
 Alpha virt. eigenvalues --    0.20229   0.20360   0.20444   0.20505   0.20588
 Alpha virt. eigenvalues --    0.20729   0.20867   0.21011   0.21059   0.21149
 Alpha virt. eigenvalues --    0.21194   0.21377   0.21417   0.21539   0.21625
 Alpha virt. eigenvalues --    0.21804   0.21843   0.21949   0.22070   0.22117
 Alpha virt. eigenvalues --    0.22407   0.22429   0.22595   0.22656   0.22811
 Alpha virt. eigenvalues --    0.22985   0.23018   0.23125   0.23230   0.23288
 Alpha virt. eigenvalues --    0.23392   0.23560   0.23694   0.23897   0.23935
 Alpha virt. eigenvalues --    0.24054   0.24106   0.24248   0.24291   0.24407
 Alpha virt. eigenvalues --    0.24458   0.24631   0.24774   0.24860   0.25043
 Alpha virt. eigenvalues --    0.25088   0.25149   0.25175   0.25276   0.25438
 Alpha virt. eigenvalues --    0.25497   0.25678   0.25743   0.25770   0.25999
 Alpha virt. eigenvalues --    0.26061   0.26202   0.26330   0.26525   0.26562
 Alpha virt. eigenvalues --    0.26791   0.26890   0.26943   0.26994   0.27129
 Alpha virt. eigenvalues --    0.27179   0.27371   0.27414   0.27492   0.27686
 Alpha virt. eigenvalues --    0.27777   0.27872   0.27985   0.28100   0.28186
 Alpha virt. eigenvalues --    0.28485   0.28507   0.28567   0.28667   0.28726
 Alpha virt. eigenvalues --    0.28855   0.29014   0.29086   0.29215   0.29282
 Alpha virt. eigenvalues --    0.29385   0.29420   0.29502   0.29561   0.29687
 Alpha virt. eigenvalues --    0.29863   0.29987   0.30160   0.30247   0.30266
 Alpha virt. eigenvalues --    0.30364   0.30515   0.30595   0.30642   0.30733
 Alpha virt. eigenvalues --    0.30777   0.30867   0.30904   0.31239   0.31333
 Alpha virt. eigenvalues --    0.31397   0.31512   0.31603   0.31754   0.31802
 Alpha virt. eigenvalues --    0.31990   0.32055   0.32154   0.32256   0.32335
 Alpha virt. eigenvalues --    0.32430   0.32616   0.32640   0.32752   0.32829
 Alpha virt. eigenvalues --    0.32966   0.33042   0.33122   0.33232   0.33373
 Alpha virt. eigenvalues --    0.33466   0.33517   0.33640   0.33696   0.33752
 Alpha virt. eigenvalues --    0.33868   0.34039   0.34132   0.34294   0.34371
 Alpha virt. eigenvalues --    0.34419   0.34608   0.34730   0.34763   0.34863
 Alpha virt. eigenvalues --    0.34976   0.35039   0.35155   0.35196   0.35402
 Alpha virt. eigenvalues --    0.35474   0.35603   0.35737   0.35747   0.35875
 Alpha virt. eigenvalues --    0.36031   0.36106   0.36210   0.36314   0.36448
 Alpha virt. eigenvalues --    0.36531   0.36578   0.36719   0.36738   0.36820
 Alpha virt. eigenvalues --    0.37005   0.37100   0.37256   0.37289   0.37422
 Alpha virt. eigenvalues --    0.37482   0.37579   0.37775   0.37874   0.37986
 Alpha virt. eigenvalues --    0.38101   0.38175   0.38279   0.38312   0.38347
 Alpha virt. eigenvalues --    0.38458   0.38544   0.38702   0.38723   0.38782
[...]
 Alpha virt. eigenvalues --    6.05932   6.06081   6.06460   6.06620   6.07470
 Alpha virt. eigenvalues --    6.07713   6.07907   6.08490   6.10697   6.11815
 Alpha virt. eigenvalues --    6.12465   6.12689   6.12829   6.13128   6.14020
 Alpha virt. eigenvalues --    6.15918   6.16139   6.18247   6.19191   6.20582
 Alpha virt. eigenvalues --    6.21178   6.21389   6.21851   6.24025   6.24562
 Alpha virt. eigenvalues --    6.25454   6.30282   6.34182   6.34797   6.37925
 Alpha virt. eigenvalues --    6.41744   6.42493   6.43323   6.44220   6.45812
 Alpha virt. eigenvalues --    6.46264   6.46379   6.46596   6.47186   6.47314
 Alpha virt. eigenvalues --    6.47569   6.54272   6.55841   6.56562   6.57370
 Alpha virt. eigenvalues --    6.57833   6.58534   6.59251   6.60791   6.64695
 Alpha virt. eigenvalues --    6.67825   6.68434   6.69385   6.71249   6.71337
 Alpha virt. eigenvalues --    6.76489   6.77179   6.77370   6.78384   6.78606
 Alpha virt. eigenvalues --    6.78750   6.79113   6.79310   6.79995   6.82419
 Alpha virt. eigenvalues --    6.82759   6.82868   6.83265   6.83754   6.84189
 Alpha virt. eigenvalues --    6.84414   6.84838   6.84993   6.85175   6.85349
 Alpha virt. eigenvalues --    6.85702   6.86095   6.86130   6.86325   6.86668
 Alpha virt. eigenvalues --    6.86950   6.87285   6.87354   6.87807   6.87875
 Alpha virt. eigenvalues --    6.88948   6.89407   6.89845   6.90613   6.92298
 Alpha virt. eigenvalues --    6.92469   6.92578   6.93470   6.94575   6.96303
 Alpha virt. eigenvalues --    6.97100   6.97297   6.97517   6.98193   6.98367
 Alpha virt. eigenvalues --    6.99712   7.01291   7.01479   7.01774   7.02077
 Alpha virt. eigenvalues --    7.02601   7.04883   7.05829   7.06963   7.07271
 Alpha virt. eigenvalues --    7.08933   7.09252   7.09861   7.10742   7.12506
 Alpha virt. eigenvalues --    7.13138   7.13491   7.14325   7.15208   7.16634
 Alpha virt. eigenvalues --    7.20744   7.23053   7.25680   7.28631   7.30055
 Alpha virt. eigenvalues --    7.33157   7.35169   7.36320   7.36418   7.36667
 Alpha virt. eigenvalues --    7.37207   7.39802   7.41698   7.43680   7.43753
 Alpha virt. eigenvalues --    7.46647   7.48008   7.48820   7.48878   7.56286
 Alpha virt. eigenvalues --    7.58968   7.59084   7.59437   7.62712   7.62822
 Alpha virt. eigenvalues --    7.65205   7.66631   7.67707   7.76200   7.90886
 Alpha virt. eigenvalues --    7.92327   8.00474   8.04697   8.26596   8.27862
 Alpha virt. eigenvalues --    8.30056   8.30724   8.30893   8.32012   8.36459
 Alpha virt. eigenvalues --    8.39317   8.45215   8.45928   8.49234   8.49584
 Alpha virt. eigenvalues --    8.57449   8.58236   8.59318   8.59580   8.67421
 Alpha virt. eigenvalues --    8.68137   8.75214   8.75953   8.77539   8.78619
 Alpha virt. eigenvalues --    8.78950   8.80880   8.88728   8.90596   8.94778
 Alpha virt. eigenvalues --    8.96667   8.97903   8.99881   9.02308   9.04097
 Alpha virt. eigenvalues --    9.04423   9.06973   9.08148   9.09837   9.13118
 Alpha virt. eigenvalues --    9.16302   9.17853   9.23664   9.56192   9.61445
 Alpha virt. eigenvalues --    9.76719   9.87548  10.15680  10.18698  22.58796
 Alpha virt. eigenvalues --   22.59699  22.66304  22.67580  22.71339  22.72671
 Alpha virt. eigenvalues --   22.84915  22.88709  22.88761  22.89626  22.92085
 Alpha virt. eigenvalues --   22.94373  22.97633  23.01218  23.02831  23.03318
 Alpha virt. eigenvalues --   23.04939  23.06419  23.06930  23.07830  23.08268
 Alpha virt. eigenvalues --   23.09266  23.09995  23.10540  23.11331  23.12106
 Alpha virt. eigenvalues --   23.12865  23.13437  23.13596  23.16424  23.16767
 Alpha virt. eigenvalues --   23.17778  23.18564  23.18714  23.18775  23.20004
 Alpha virt. eigenvalues --   23.21330  23.21365  23.21879  23.21981  23.23301
 Alpha virt. eigenvalues --   23.24375  23.24447  23.25098  23.25652  23.26535
 Alpha virt. eigenvalues --   23.27084  23.27340  23.27793  23.28398  23.30187
 Alpha virt. eigenvalues --   23.31564  23.32208  23.32843  23.33279  23.35542
 Alpha virt. eigenvalues --   23.37199  23.37517  23.38170  23.40500  23.41037
 Alpha virt. eigenvalues --   23.42434  23.44787  23.44926  23.45709  23.46622
 Alpha virt. eigenvalues --   23.47105  23.53024  23.55205  23.56394  23.56727
 Alpha virt. eigenvalues --   23.58460  23.63815  23.64867  23.76020  23.80020
 Alpha virt. eigenvalues --   23.82457  23.82835  23.90457  23.92725  24.12645
 Alpha virt. eigenvalues --   24.13137  24.15074  24.17037  24.24108  24.29563
 Alpha virt. eigenvalues --   24.38599  24.44655  32.58401  32.67372  32.75129
 Alpha virt. eigenvalues --   33.06217  33.24516  33.33854  34.67132  34.77238
 Alpha virt. eigenvalues --   35.03447  43.15269  44.00381  44.11323  44.13670
 Alpha virt. eigenvalues --   44.23309  44.27742  44.27809  44.28120  44.54933
 Alpha virt. eigenvalues --   57.11937  57.17499  57.23388  57.34630  57.48688
 Alpha virt. eigenvalues --   57.49312  57.50903  57.67074 117.92411
          Condensed to atoms (all electrons):
 Mulliken charges:
               1
     1  C    0.052681
     2  C    0.180773
     3  C    0.030907
     4  C   -0.236465
     5  C    0.258101
     6  N   -0.286446
     7  H    0.137405
     8  C   -0.093341
     9  C    0.182442
    10  C   -0.244852
    11  C   -0.249616
    12  C   -0.119813
    13  H    0.157795
    14  H    0.158879
    15  H    0.146086
    16  C    0.359689
    17  C   -0.023824
    18  C   -0.168896
    19  C   -0.193948
    20  C   -0.114908
    21  H    0.145500
    22  C   -0.130419
    23  H    0.145337
    24  C   -0.136562
    25  H    0.133109
    26  H    0.125697
    27  H    0.141404
    28  F   -0.226195
    29  C   -0.268247
    30  H    0.119171
    31  H    0.090565
    32  H    0.126824
    33  C   -0.015039
    34  C   -0.030323
    35  C   -0.002825
    36  H    0.072041
    37  H    0.116370
    38  C    0.008029
    39  H    0.105376
    40  H    0.096809
    41  H    0.102935
    42  H    0.086882
    43  H    0.106872
    44  H    0.080238
    45  N    0.012170
    46  O   -0.334650
    47  H    0.182724
    48  C   -0.137747
    49  C   -0.199306
    50  C   -0.055837
    51  C   -0.061935
    52  C   -0.140750
    53  C   -0.142621
    54  H    0.153482
    55  H    0.158891
    56  C    0.099706
    57  C   -0.073905
    58  H    0.145919
    59  H    0.152338
    60  C   -0.147214
    61  C   -0.098998
    62  H    0.145867
    63  C    0.066889
    64  C   -0.060968
    65  C   -0.049184
    66  C   -0.145857
    67  C   -0.057148
    68  C   -0.201575
    69  C   -0.090811
    70  C   -0.133494
    71  C   -0.131015
    72  H    0.160363
    73  H    0.147082
    74  C   -0.144506
    75  H    0.146060
    76  H    0.153594
    77  H    0.152545
    78  S    0.912905
    79  O   -0.521170
    80  O   -0.559186
    81  S    0.989287
    82  O   -0.551908
    83  O   -0.578646
    84  N   -0.452991
    85  C    0.020782
    86  C    0.313937
    87  C    0.063370
    88  C    0.225393
    89  C   -0.054730
    90  C   -0.218815
    91  C   -0.175617
    92  C   -0.122859
    93  H    0.192942
    94  C   -0.084919
    95  C   -0.156176
    96  H    0.154754
    97  H    0.161123
    98  H    0.160099
    99  C   -0.088201
   100  C   -0.181165
   101  C   -0.157001
   102  C   -0.144105
   103  H    0.147658
   104  C   -0.125786
   105  C   -0.067410
   106  H    0.141207
   107  H    0.161933
   108  H    0.139532
   109  C    0.556035
   110  F   -0.189736
   111  F   -0.186040
   112  F   -0.188635
   113  C    0.565812
   114  F   -0.191101
   115  F   -0.194120
   116  F   -0.184559
   117  I   -0.021789
   118  N   -0.358813
   119  C    0.307710
   120  C   -0.139137
   121  C   -0.091061
   122  C    0.292886
   123  O   -0.418323
   124  O   -0.371376
   125  H    0.097899
   126  H    0.104351
   127  H    0.091411
   128  H    0.090148
   129  C    0.229862
   130  C   -0.215774
   131  C    0.025281
   132  C   -0.216624
   133  C    0.133796
   134  N   -0.284220
   135  H    0.139398
   136  C   -0.065506
   137  C    0.111479
   138  C   -0.194442
   139  C   -0.232816
   140  C   -0.132746
   141  H    0.148883
   142  H    0.156266
   143  H    0.158220
   144  C    0.297696
   145  C    0.047271
   146  C   -0.188167
   147  C   -0.158792
   148  C   -0.171159
   149  H    0.152259
   150  C   -0.177002
   151  H    0.139409
   152  C   -0.151090
   153  H    0.148664
   154  H    0.148186
   155  H    0.151882
   156  F   -0.235304
   157  C   -0.268420
   158  H    0.115707
   159  H    0.101105
   160  H    0.092131
   161  C    0.025674
   162  C   -0.057629
   163  C   -0.034647
   164  H    0.080676
   165  H    0.081268
   166  C    0.017291
   167  H    0.087999
   168  H    0.087527
   169  H    0.097344
   170  H    0.076864
   171  H    0.096558
   172  H    0.062404
   173  N   -0.089690
   174  O   -0.341004
   175  H    0.134710
   176  H    0.357114
 Sum of Mulliken charges =  -0.00000
 Mulliken charges with hydrogens summed into heavy atoms:
               1
     1  C    0.052681
     2  C    0.363497
     3  C    0.030907
     4  C   -0.099060
     5  C    0.258101
     6  N   -0.286446
     8  C   -0.093341
     9  C    0.182442
    10  C   -0.087057
    11  C   -0.103530
    12  C    0.039066
    16  C    0.359689
    17  C   -0.023824
    18  C   -0.023396
    19  C   -0.048611
    20  C    0.018200
    22  C   -0.004723
    24  C    0.004843
    28  F   -0.226195
    29  C    0.068313
    33  C    0.173373
    34  C    0.171862
    35  C    0.186992
    38  C    0.195140
    45  N    0.012170
    46  O   -0.334650
    48  C    0.015735
    49  C   -0.040414
    50  C   -0.055837
    51  C   -0.061935
    52  C    0.005169
    53  C    0.009717
    56  C    0.099706
    57  C    0.071962
    60  C   -0.147214
    61  C   -0.098998
    63  C    0.066889
    64  C   -0.060968
    65  C   -0.049184
    66  C   -0.145857
    67  C   -0.057148
    68  C   -0.041213
    69  C    0.056271
    70  C    0.012566
    71  C    0.022579
    74  C    0.008039
    78  S    0.912905
    79  O   -0.521170
    80  O   -0.559186
    81  S    0.989287
    82  O   -0.551908
    83  O   -0.578646
    84  N   -0.452991
    85  C    0.020782
    86  C    0.313937
    87  C    0.063370
    88  C    0.225393
    89  C   -0.054730
    90  C   -0.025873
    91  C   -0.175617
    92  C    0.031895
    94  C    0.076203
    95  C    0.003923
    99  C   -0.088201
   100  C   -0.033507
   101  C   -0.157001
   102  C   -0.002899
   104  C    0.036146
   105  C    0.072123
   109  C    0.556035
   110  F   -0.189736
   111  F   -0.186040
   112  F   -0.188635
   113  C    0.565812
   114  F   -0.191101
   115  F   -0.194120
   116  F   -0.184559
   117  I   -0.021789
   118  N   -0.358813
   119  C    0.307710
   120  C    0.063114
   121  C    0.090498
   122  C    0.292886
   123  O   -0.418323
   124  O   -0.014262
   129  C    0.229862
   130  C   -0.081064
   131  C    0.025281
   132  C   -0.077227
   133  C    0.133796
   134  N   -0.284220
   136  C   -0.065506
   137  C    0.111479
   138  C   -0.045559
   139  C   -0.074597
   140  C    0.023520
   144  C    0.297696
   145  C    0.047271
   146  C   -0.035908
   147  C   -0.019383
   148  C   -0.022495
   150  C   -0.028816
   152  C    0.000792
   156  F   -0.235304
   157  C    0.040524
   161  C    0.187618
   162  C    0.117897
   163  C    0.139561
   166  C    0.176253
   173  N   -0.089690
   174  O   -0.341004
 Electronic spatial extent (au):  <R**2>=         159320.1602
 Charge=             -0.0000 electrons
 Dipole moment (field-independent basis, Debye):
    X=             -5.2336    Y=            -10.6273    Z=             -4.3840  Tot=             12.6313
 Quadrupole moment (field-independent basis, Debye-Ang):
   XX=           -581.1484   YY=           -581.4434   ZZ=           -618.4313
   XY=             21.1806   XZ=             42.7874   YZ=             31.6408
 Traceless Quadrupole moment (field-independent basis, Debye-Ang):
   XX=             12.5260   YY=             12.2310   ZZ=            -24.7570
   XY=             21.1806   XZ=             42.7874   YZ=             31.6408
 Octapole moment (field-independent basis, Debye-Ang**2):
  XXX=           2958.3637  YYY=           4148.7037  ZZZ=            962.2145  XYY=            849.1789
  XXY=            711.6146  XXZ=             51.1064  XZZ=            957.3809  YZZ=           1412.5790
  YYZ=            361.9737  XYZ=            -78.4214
 Hexadecapole moment (field-independent basis, Debye-Ang**3):
 XXXX=        -101233.9917 YYYY=         -72871.8891 ZZZZ=         -29320.1774 XXXY=         -22604.6040
 XXXZ=          -8904.9583 YYYX=         -23561.2417 YYYZ=         -11876.6527 ZZZX=          -7971.4465
 ZZZY=         -10240.7632 XXYY=         -26037.2084 XXZZ=         -21522.2253 YYZZ=         -17855.4799
 XXYZ=          -2799.0003 YYXZ=          -3202.2166 ZZXY=          -8523.3101
 N-N= 2.648905342263D+04 E-N=-6.730120777072D+04  KE= 5.931122491415D+03
 Leave Link  601 at Wed Feb 26 03:19:31 2025, MaxMem=  6442450944 cpu:              29.1 elap:               1.9
 (Enter /ihome/crc/install/gaussian/c01/avx2/tar/g16/l9999.exe)
 Unable to Open any file for archive entry.
 1\1\GINC-SMP-N252\SP\RB3LYP\def2TZVPP\C86H65F8I1N6O8S2\BIM12\26-Feb-20
 25\0\\#p b3lyp def2tzvpp scf=maxcycle=128 nosymm scrf=(smd,solvent=pro
 pylethanoate) empiricaldispersion=gd3bj\\alkyneCF3_S-ax-S_01_iodi_INT6
 \\0,1\C,0,0.191691,-4.026097,-0.546023\C,0,-0.817979,-3.245118,0.21760
 5\C,0,-0.367166,-2.800747,1.555151\C,0,0.890112,-3.084341,1.971448\C,0
 ,1.798975,-3.748771,1.082666\N,0,1.371324,-4.299423,-0.110663\H,0,1.21
 4816,-2.740821,2.949166\C,0,-0.155278,-4.519234,-1.916599\C,0,-0.11312
 8,-3.663057,-3.032741\C,0,-0.479913,-4.169135,-4.28672\C,0,-0.854545,-
 6.365496,-3.34934\C,0,-0.84725,-5.504383,-4.443617\H,0,-0.439537,-3.50
 5555,-5.152301\H,0,-1.115724,-5.883834,-5.431092\H,0,-1.131557,-7.4168
 69,-3.432614\C,0,-0.5088,-5.853879,-2.108027\C,0,0.382516,-2.261248,-2
 .923963\C,0,1.690043,-2.008774,-2.487134\C,0,-0.420455,-1.186451,-3.32
 8561\C,0,2.185805,-0.7063,-2.461881\H,0,2.324849,-2.843332,-2.181482\C
 ,0,0.075176,0.114506,-3.292857\H,0,-1.446064,-1.375225,-3.653152\C,0,1
 .380061,0.356683,-2.862935\H,0,3.200323,-0.519736,-2.10944\H,0,-0.5678
 01,0.947731,-3.577548\H,0,1.761112,1.378813,-2.82178\F,0,-0.525194,-6.
 668415,-1.047992\C,0,-1.320902,-2.045763,2.417956\H,0,-0.779984,-1.274
 903,2.982973\H,0,-2.102987,-1.588082,1.800658\H,0,-1.811467,-2.733093,
 3.12545\C,0,4.011192,-4.666184,0.53359\C,0,3.786509,-3.152219,2.413186
 \C,0,4.708535,-5.639567,1.478646\H,0,4.755658,-3.998329,0.075198\H,0,3
 .457613,-5.19414,-0.246338\C,0,4.494746,-4.183322,3.281635\H,0,4.52747
 8,-2.487333,1.94326\H,0,3.101802,-2.525598,2.988748\H,0,5.456017,-6.21
 769,0.919786\H,0,3.959988,-6.341289,1.893246\H,0,5.085847,-3.67193,4.0
 51986\H,0,3.743179,-4.824244,3.78056\N,0,3.092695,-3.838713,1.321938\O
 ,0,5.376574,-4.963095,2.512469\H,0,-1.226727,-2.403874,-0.369082\C,0,0
 .353316,3.780579,5.569683\C,0,0.50868,3.394828,4.259512\C,0,-0.51517,2
 .668116,3.588823\C,0,-1.693275,2.333051,4.314785\C,0,-1.831851,2.75577
 1,5.666632\C,0,-0.831804,3.467097,6.280836\H,0,1.153045,4.329535,6.069
 318\H,0,1.432057,3.634458,3.731632\C,0,-0.389142,2.239285,2.224567\C,0
 ,-2.707569,1.577297,3.681796\H,0,-2.746091,2.494558,6.203266\H,0,-0.94
 0843,3.785449,7.318786\C,0,-2.56175,1.116913,2.386942\C,0,-1.3658,1.43
 6394,1.661241\H,0,-3.619257,1.339675,4.232802\C,0,0.810497,2.709918,1.
 448849\C,0,1.807364,1.854689,1.014839\C,0,0.887587,4.110348,1.137872\C
 ,0,2.949738,2.350952,0.308182\C,0,2.034322,4.606188,0.453645\C,0,-0.15
 1454,5.028242,1.462748\C,0,3.052918,3.707783,0.062653\C,0,2.132431,5.9
 93763,0.152714\C,0,-0.0357,6.361603,1.14934\H,0,-1.055645,4.66826,1.95
 3367\H,0,3.931032,4.089388,-0.461466\C,0,1.12151,6.855098,0.497079\H,0
 ,3.024374,6.35238,-0.364786\H,0,-0.8467,7.046763,1.400991\H,0,1.199209
 ,7.917495,0.26086\S,0,-0.980723,0.723089,0.054499\O,0,-0.686249,1.8410
 13,-0.791888\O,0,-2.051456,-0.132535,-0.365508\S,0,1.507658,0.103474,1
 .251954\O,0,1.221866,-0.043,2.654777\O,0,2.62343,-0.664203,0.778916\N,
 0,0.265577,-0.204181,0.334378\C,0,-3.626514,0.330341,1.83491\C,0,-4.51
 1101,-0.377092,1.401035\C,0,4.013213,1.517315,-0.167491\C,0,4.943669,0
 .876666,-0.609521\C,0,5.939321,-0.019031,-1.113957\C,0,5.709786,-1.401
 085,-1.010514\C,0,7.127116,0.430352,-1.72261\C,0,6.644595,-2.306898,-1
 .504044\H,0,4.782863,-1.734783,-0.537164\C,0,8.058524,-0.480907,-2.210
 9\C,0,7.818249,-1.850594,-2.103105\H,0,6.456273,-3.378881,-1.423163\H,
 0,8.973569,-0.118214,-2.679274\H,0,8.550318,-2.560407,-2.489858\C,0,-5
 .453215,-1.234162,0.745652\C,0,-5.628316,-1.106887,-0.63921\C,0,-6.183
 201,-2.224834,1.43356\C,0,-6.521346,-1.933759,-1.315563\H,0,-5.044181,
 -0.357632,-1.173666\C,0,-7.077852,-3.041981,0.752419\C,0,-7.251124,-2.
 897986,-0.625134\H,0,-6.637017,-1.824367,-2.394661\H,0,-7.63241,-3.805
 809,1.300021\H,0,-7.944574,-3.551763,-1.159333\C,0,7.380387,1.910896,-
 1.839051\F,0,7.418085,2.505159,-0.642199\F,0,8.541678,2.172292,-2.4425
 51\F,0,6.425422,2.526873,-2.543579\C,0,-5.956296,-2.416113,2.909162\F,
 0,-6.248824,-1.31521,3.610764\F,0,-6.709456,-3.403878,3.405414\F,0,-4.
 68447,-2.719378,3.183775\I,0,-2.580992,-4.507765,0.533561\N,0,-6.23703
 2,-5.993507,-0.14645\C,0,-7.498708,-6.303204,-0.21173\C,0,-8.131519,-6
 .808336,1.062122\C,0,-6.965009,-6.721467,2.035351\C,0,-5.813853,-6.235
 015,1.153582\O,0,-4.679078,-6.077413,1.549385\O,0,-8.231472,-6.199763,
 -1.267839\H,0,-8.995021,-6.178267,1.319229\H,0,-8.505855,-7.82924,0.89
 7953\H,0,-6.688676,-7.67797,2.498273\H,0,-7.113092,-5.992165,2.844071\
 C,0,-5.717624,-5.89236,-3.500029\C,0,-4.710658,-5.250492,-4.200047\C,0
 ,-4.980466,-3.989374,-4.766557\C,0,-6.253706,-3.459605,-4.640636\C,0,-
 7.239505,-4.171658,-3.912376\N,0,-6.930782,-5.336882,-3.326289\H,0,-6.
 492746,-2.515864,-5.128365\C,0,-5.531549,-7.240118,-2.891793\C,0,-6.49
 9288,-8.264526,-2.992357\C,0,-6.316726,-9.45197,-2.268877\C,0,-4.22232
 3,-8.652948,-1.375111\C,0,-5.193541,-9.645917,-1.467911\H,0,-7.060059,
 -10.245266,-2.361931\H,0,-5.069216,-10.580751,-0.919359\H,0,-3.332036,
 -8.753052,-0.75316\C,0,-4.415762,-7.478272,-2.084602\C,0,-7.708963,-8.
 134757,-3.854737\C,0,-7.612829,-7.684863,-5.17983\C,0,-8.969586,-8.482
 918,-3.352492\C,0,-8.750354,-7.570756,-5.975127\H,0,-6.634558,-7.42094
 9,-5.588191\C,0,-10.109849,-8.369436,-4.148965\H,0,-9.059577,-8.818562
 ,-2.317669\C,0,-10.004675,-7.909756,-5.461144\H,0,-8.657355,-7.219261,
 -7.004374\H,0,-11.085198,-8.635652,-3.737563\H,0,-10.896209,-7.817304,
 -6.084183\F,0,-3.505019,-6.511928,-1.948625\C,0,-3.901783,-3.247971,-5
 .500446\H,0,-3.156298,-2.876363,-4.780391\H,0,-3.376594,-3.911094,-6.2
 02716\H,0,-4.30516,-2.390282,-6.053584\C,0,-9.630837,-4.621957,-3.4594
 73\C,0,-8.941546,-2.346163,-3.971992\C,0,-10.736276,-4.443093,-4.49308
 6\H,0,-10.022531,-4.407584,-2.449106\H,0,-9.286784,-5.663341,-3.482094
 \C,0,-10.071086,-2.275172,-4.988853\H,0,-9.307542,-1.94794,-3.007574\H
 ,0,-8.100046,-1.722769,-4.291421\H,0,-11.616919,-5.034606,-4.206586\H,
 0,-10.371994,-4.807484,-5.473733\H,0,-10.452856,-1.247971,-5.062147\H,
 0,-9.691189,-2.584246,-5.982338\N,0,-8.52505,-3.725338,-3.773877\O,0,-
 11.142146,-3.099833,-4.599552\H,0,-3.728603,-5.711006,-4.305196\H,0,-7
 .699328,-5.865283,-2.114924\\Version=ES64L-G16RevC.01\HF=-6141.9999253
 \RMSD=2.375e-09\Dipole=-2.0590473,-4.1810855,-1.724803\Quadrupole=9.31
 27527,9.0934417,-18.4061944,15.747235,31.811378,23.5241721\PG=C01 [X(C
 86H65F8I1N6O8S2)]\\@
 The archive entry for this job was punched.


 MUD THROWN IS GROUND LOST -- FROM A TEA BAG
 Job cpu time:       2 days  2 hours 19 minutes 14.2 seconds.
 Elapsed time:       0 days  1 hours 35 minutes 18.2 seconds.
 File lengths (MBytes):  RWF=  12560 Int=      0 D2E=      0 Chk=   1110 Scr=      1
 Normal termination of Gaussian 16 at Wed Feb 26 03:19:34 2025.
