 Entering Gaussian System, Link 0=g16
 Initial command:
 /ihome/crc/install/gaussian/c01/avx2/tar/g16/l1.exe "/scratch/slurm-17559417/Gau-23685.inp" -scrdir="/scratch/slurm-17559417/"
 Entering Link 1 = /ihome/crc/install/gaussian/c01/avx2/tar/g16/l1.exe PID=     23686.
  
 Copyright (c) 1988-2019, Gaussian, Inc.  All Rights Reserved.
  
 This is part of the Gaussian(R) 16 program.  It is based on
 the Gaussian(R) 09 system (copyright 2009, Gaussian, Inc.),
 the Gaussian(R) 03 system (copyright 2003, Gaussian, Inc.),
 the Gaussian(R) 98 system (copyright 1998, Gaussian, Inc.),
 the Gaussian(R) 94 system (copyright 1995, Gaussian, Inc.),
 the Gaussian 92(TM) system (copyright 1992, Gaussian, Inc.),
 the Gaussian 90(TM) system (copyright 1990, Gaussian, Inc.),
 the Gaussian 88(TM) system (copyright 1988, Gaussian, Inc.),
 the Gaussian 86(TM) system (copyright 1986, Carnegie Mellon
 University), and the Gaussian 82(TM) system (copyright 1983,
 Carnegie Mellon University). Gaussian is a federally registered
 trademark of Gaussian, Inc.
  
 This software contains proprietary and confidential information,
 including trade secrets, belonging to Gaussian, Inc.
  
 This software is provided under written license and may be
 used, copied, transmitted, or stored only in accord with that
 written license.
  
 The following legend is applicable only to US Government
 contracts under FAR:
  
                    RESTRICTED RIGHTS LEGEND
  
 Use, reproduction and disclosure by the US Government is
 subject to restrictions as set forth in subparagraphs (a)
 and (c) of the Commercial Computer Software - Restricted
 Rights clause in FAR 52.227-19.
  
 Gaussian, Inc.
 340 Quinnipiac St., Bldg. 40, Wallingford CT 06492
  
  
 ---------------------------------------------------------------
 Warning -- This program may not be used in any manner that
 competes with the business of Gaussian, Inc. or will provide
 assistance to any competitor of Gaussian, Inc.  The licensee
 of this program is prohibited from giving any competitor of
 Gaussian, Inc. access to this program.  By using this program,
 the user acknowledges that Gaussian, Inc. is engaged in the
 business of creating and licensing software in the field of
 computational chemistry and represents and warrants to the
 licensee that it is not a competitor of Gaussian, Inc. and that
 it will not use this program in any manner prohibited above.
 ---------------------------------------------------------------
  

 Cite this work as:
 Gaussian 16, Revision C.01,
 M. J. Frisch, G. W. Trucks, H. B. Schlegel, G. E. Scuseria, 
 M. A. Robb, J. R. Cheeseman, G. Scalmani, V. Barone, 
 G. A. Petersson, H. Nakatsuji, X. Li, M. Caricato, A. V. Marenich, 
 J. Bloino, B. G. Janesko, R. Gomperts, B. Mennucci, H. P. Hratchian, 
 J. V. Ortiz, A. F. Izmaylov, J. L. Sonnenberg, D. Williams-Young, 
 F. Ding, F. Lipparini, F. Egidi, J. Goings, B. Peng, A. Petrone, 
 T. Henderson, D. Ranasinghe, V. G. Zakrzewski, J. Gao, N. Rega, 
 G. Zheng, W. Liang, M. Hada, M. Ehara, K. Toyota, R. Fukuda, 
 J. Hasegawa, M. Ishida, T. Nakajima, Y. Honda, O. Kitao, H. Nakai, 
 T. Vreven, K. Throssell, J. A. Montgomery, Jr., J. E. Peralta, 
 F. Ogliaro, M. J. Bearpark, J. J. Heyd, E. N. Brothers, K. N. Kudin, 
 V. N. Staroverov, T. A. Keith, R. Kobayashi, J. Normand, 
 K. Raghavachari, A. P. Rendell, J. C. Burant, S. S. Iyengar, 
 J. Tomasi, M. Cossi, J. M. Millam, M. Klene, C. Adamo, R. Cammi, 
 J. W. Ochterski, R. L. Martin, K. Morokuma, O. Farkas, 
 J. B. Foresman, and D. J. Fox, Gaussian, Inc., Wallingford CT, 2019.
 
 ******************************************
 Gaussian 16:  ES64L-G16RevC.01  3-Jul-2019
                17-Nov-2024 
 ******************************************
 %chk=alkyneCF3_S-ax-R_01_iodi_INT.chk
 %nprocshared=48
 Will use up to   48 processors via shared memory.
 %mem=54GB
 ----------------------------------------------------------------------
 #p b3lyp def2tzvpp scf=maxcycle=128 nosymm scrf=(smd,solvent=propyleth
 anoate) empiricaldispersion=gd3bj guess=read
 ----------------------------------------------------------------------
 1/38=1,172=1/1;
 2/12=2,15=1,17=6,18=5,40=1/2;
 3/5=44,7=202,11=2,25=1,30=1,70=32201,72=169,74=-5,116=-2,124=41/1,2,3;
 4/5=1/1;
 5/5=2,7=128,38=6,53=169/2;
 6/7=2,8=2,9=2,10=2,28=1/1;
 99/5=1,9=1/99;
 Leave Link    1 at Sun Nov 17 17:42:29 2024, MaxMem=  7247757312 cpu:               0.8 elap:               0.0
 (Enter /ihome/crc/install/gaussian/c01/avx2/tar/g16/l101.exe)
 -------------------
 Title Card Required
 -------------------
 Symbolic Z-matrix:
 Charge =  0 Multiplicity = 1
 C                     2.43062  -2.15614  -1.27272 
 C                     1.21344  -2.72132  -1.93014 
 C                     0.49858  -3.75926  -1.14767 
 C                     0.97637  -4.14002   0.05741 
 C                     2.18133  -3.52922   0.57375 
 N                     2.84454  -2.54654  -0.1209 
 H                     0.44051  -4.89623   0.62728 
 C                     3.22772  -1.09484  -1.94464 
 C                     4.64708  -1.08579  -1.90618 
 C                     5.33077   0.01179  -2.44149 
 C                     3.26307   1.069    -3.09467 
 C                     4.64992   1.08168  -3.02043 
 H                     6.42156   0.01075  -2.42956 
 H                     5.20645   1.92782  -3.42638 
 H                     2.68916   1.88479  -3.53399 
 C                     2.58185  -0.01539  -2.56242 
 C                     5.45776  -2.21536  -1.36198 
 C                     6.57127  -1.9505   -0.55331 
 C                     5.16669  -3.55121  -1.67691 
 C                     7.3489   -2.99106  -0.04171 
 H                     6.8243   -0.91743  -0.31228 
 C                     5.94105  -4.59005  -1.16889 
 H                     4.32181  -3.78166  -2.32897 
 C                     7.03304  -4.31482  -0.34209 
 H                     8.20658  -2.76155   0.59342 
 H                     5.68459  -5.62073  -1.41821 
 H                     7.63758  -5.13002   0.05965 
 F                     1.24976   0.00847  -2.6342 
 C                    -0.74996  -4.336    -1.72898 
 H                    -1.27061  -3.59501  -2.347 
 H                    -0.49947  -5.21008  -2.34996 
 H                    -1.42593  -4.66714  -0.9303 
 C                     2.13095  -4.84001   2.65456 
 C                     3.86861  -3.15141   2.30505 
 C                     3.23246  -5.74891   3.18583 
 H                     1.38821  -5.46267   2.1494 
 H                     1.65863  -4.29223   3.48687 
 C                     4.86612  -4.16573   2.84255 
 H                     4.32487  -2.52546   1.53311 
 H                     3.50425  -2.51605   3.12885 
 H                     3.62542  -6.35416   2.35147 
 H                     2.80477  -6.42361   3.93931 
 H                     5.27903  -4.75237   2.00019 
 H                     5.69007  -3.63202   3.33476 
 N                     2.69913  -3.8441    1.74285 
 O                     4.26906  -5.0151    3.78724 
 I                     1.7513   -3.49901  -3.88498 
 H                     0.50663  -1.91978  -2.18297 
 C                    -5.06794   4.18558  -1.34506 
 C                    -4.61834   2.98489  -0.84951 
 C                    -3.22521   2.73669  -0.69959 
 C                    -2.30889   3.75215  -1.09437 
 C                    -2.80299   4.98987  -1.59344 
 C                    -4.15329   5.20351  -1.71403 
 H                    -6.13954   4.35527  -1.46089 
 H                    -5.33402   2.20705  -0.58145 
 C                    -2.71823   1.49245  -0.19835 
 C                    -0.91986   3.51578  -0.97639 
 H                    -2.08475   5.75925  -1.88348 
 H                    -4.52709   6.15253  -2.10159 
 C                    -0.43068   2.30035  -0.53523 
 C                    -1.35181   1.26258  -0.17555 
 H                    -0.21796   4.31113  -1.2331 
 C                    -3.69335   0.46268   0.29919 
 C                    -3.84186  -0.76263  -0.32231 
 C                    -4.40492   0.73506   1.5166 
 C                    -4.65057  -1.79383   0.25121 
 C                    -5.28387  -0.25837   2.03789 
 C                    -4.25076   1.94723   2.24742 
 C                    -5.37667  -1.51423   1.39436 
 C                    -6.01433   0.0014    3.23134 
 C                    -4.96247   2.16782   3.40276 
 H                    -3.55522   2.7071    1.89209 
 H                    -6.00503  -2.29285   1.83174 
 C                    -5.86291   1.19177   3.89686 
 H                    -6.68796  -0.77091   3.60786 
 H                    -4.82818   3.10339   3.94795 
 H                    -6.42339   1.38568   4.81273 
 S                    -0.80601  -0.41863   0.1663 
 O                    -1.39917  -0.77105   1.42355 
 O                     0.62579  -0.50068   0.11003 
 S                    -2.78278  -1.07296  -1.72613 
 O                    -2.84309   0.09219  -2.55632 
 O                    -3.16154  -2.30219  -2.35184 
 N                    -1.3644   -1.26664  -1.04762 
 C                     0.98577   2.17663  -0.36286 
 C                     2.1793    2.1408   -0.14884 
 C                    -4.6776   -3.14952  -0.21566 
 C                    -4.70501  -4.34112  -0.44623 
 C                    -4.66917  -5.73923  -0.7522 
 C                    -5.22147  -6.70232   0.11779 
 C                    -4.03429  -6.17328  -1.92658 
 C                    -5.15479  -8.05771  -0.19366 
 C                    -3.96793  -7.53103  -2.23019 
 H                    -3.60228  -5.42549  -2.5932 
 C                    -4.53172  -8.47345  -1.37105 
 H                    -5.58905  -8.79106   0.48685 
 H                    -3.47347  -7.85421  -3.14782 
 H                    -4.48393  -9.53651  -1.61072 
 C                     3.54665   1.93092   0.21717 
 C                     3.87104   0.74135   0.89067 
 C                     4.56503   2.8669   -0.04578 
 C                     5.17603   0.51193   1.31569 
 H                     3.07594   0.01351   1.0682 
 C                     5.87222   2.6212    0.36497 
 C                     6.17752   1.44722   1.05326 
 H                     5.41487  -0.4086    1.85163 
 H                     6.65132   3.35414   0.15515 
 H                     7.20127   1.26562   1.38395 
 C                     4.22682   4.14318  -0.76992 
 F                     5.29868   4.92135  -0.93645 
 F                     3.31621   4.86617  -0.11052 
 F                     3.72175   3.91343  -1.98845 
 C                    -5.87361  -6.25221   1.39969 
 F                    -6.36823  -7.27958   2.09612 
 F                    -6.88228  -5.4028    1.18483 
 F                    -5.00796  -5.6228    2.207 
 N                     1.56891  -7.80014   1.44135 
 C                     1.37183  -9.07396   1.60496 
 C                     2.05832  -9.98281   0.61672 
 C                     2.63117  -8.97216  -0.37054 
 C                     2.38603  -7.62992   0.32193 
 O                     2.83508  -6.56502  -0.03126 
 O                     0.62687  -9.5839    2.53222 
 H                     2.82607  -10.57395   1.13795 
 H                     1.32518  -10.684    0.19402 
 H                     2.08402  -8.96291  -1.32555 
 H                     3.6983   -9.09114  -0.59565 
 C                    -1.5211   -7.31504   1.87047 
 C                    -1.94111  -6.03535   1.56506 
 C                    -1.82401  -5.03167   2.54756 
 C                    -1.33059  -5.38213   3.79352 
 C                    -0.95483  -6.7268    4.05151 
 N                    -1.00912  -7.63916   3.07304 
 H                    -1.26569  -4.62045   4.56815 
 C                    -1.60209  -8.41776   0.86887 
 C                    -2.16077  -9.67889   1.17193 
 C                    -2.12135  -10.69794   0.21112 
 C                    -0.97897  -9.25464  -1.35014 
 C                    -1.53932  -10.49039  -1.03823 
 H                    -2.57172  -11.66339   0.44733 
 H                    -1.52483  -11.29508  -1.77498 
 H                    -0.5105   -9.04994  -2.31375 
 C                    -1.02466  -8.25086  -0.39219 
 C                    -2.78603  -9.95589   2.49504 
 C                    -2.44134  -11.11347   3.20391 
 C                    -3.7233   -9.07473   3.05269 
 C                    -3.01513  -11.37942   4.44834 
 H                    -1.69818  -11.79673   2.78779 
 C                    -4.30134  -9.34292   4.29026 
 H                    -3.9903   -8.16446   2.51338 
 C                    -3.94597  -10.49608   4.99461 
 H                    -2.72908  -12.28031   4.99429 
 H                    -5.03344  -8.64673   4.7034 
 H                    -4.3955   -10.70462   5.9671 
 F                    -0.44462  -7.08144  -0.69001 
 C                    -2.26592  -3.63248   2.2438 
 H                    -1.97812  -3.32996   1.22582 
 H                    -3.36486  -3.57365   2.29695 
 H                    -1.84487  -2.90358   2.94639 
 C                     0.04779  -6.25704   6.26654 
 C                    -0.23639  -8.56262   5.5082 
 C                    -0.23028  -6.75193   7.67698 
 H                    -0.35901  -5.24595   6.1657 
 H                     1.14242  -6.20604   6.10967 
 C                    -0.49481  -8.93128   6.96032 
 H                    -0.87865  -9.18293   4.86896 
 H                     0.81941  -8.77162   5.24992 
 H                    -1.31434  -6.66685   7.88537 
 H                     0.31535  -6.13352   8.40201 
 H                    -1.58364  -8.88314   7.15599 
 H                    -0.15202  -9.95756   7.14839 
 N                    -0.55065  -7.15667   5.28981 
 O                     0.19116  -8.08137   7.84559 
 H                    -2.35866  -5.81288   0.58328 
 H                    -0.00181  -8.84852   2.91438 
 
 ITRead=  0  0  0  0  0  0  0  0  0  0  0  0  0  0  0  0  0  0  0  0
 ITRead=  0  0  0  0  0  0  0  0  0  0  0  0  0  0  0  0  0  0  0  0
 ITRead=  0  0  0  0  0  0  0  0  0  0  0  0  0  0  0  0  0  0  0  0
 ITRead=  0  0  0  0  0  0  0  0  0  0  0  0  0  0  0  0  0  0  0  0
 ITRead=  0  0  0  0  0  0  0  0  0  0  0  0  0  0  0  0  0  0  0  0
 ITRead=  0  0  0  0  0  0  0  0  0  0  0  0  0  0  0  0  0  0  0  0
 ITRead=  0  0  0  0  0  0  0  0  0  0  0  0  0  0  0  0  0  0  0  0
 ITRead=  0  0  0  0  0  0  0  0  0  0  0  0  0  0  0  0  0  0  0  0
 ITRead=  0  0  0  0  0  0  0  0  0  0  0  0  0  0  0  0
 MicOpt= -1 -1 -1 -1 -1 -1 -1 -1 -1 -1 -1 -1 -1 -1 -1 -1 -1 -1 -1 -1
 MicOpt= -1 -1 -1 -1 -1 -1 -1 -1 -1 -1 -1 -1 -1 -1 -1 -1 -1 -1 -1 -1
 MicOpt= -1 -1 -1 -1 -1 -1 -1 -1 -1 -1 -1 -1 -1 -1 -1 -1 -1 -1 -1 -1
 MicOpt= -1 -1 -1 -1 -1 -1 -1 -1 -1 -1 -1 -1 -1 -1 -1 -1 -1 -1 -1 -1
 MicOpt= -1 -1 -1 -1 -1 -1 -1 -1 -1 -1 -1 -1 -1 -1 -1 -1 -1 -1 -1 -1
 MicOpt= -1 -1 -1 -1 -1 -1 -1 -1 -1 -1 -1 -1 -1 -1 -1 -1 -1 -1 -1 -1
 MicOpt= -1 -1 -1 -1 -1 -1 -1 -1 -1 -1 -1 -1 -1 -1 -1 -1 -1 -1 -1 -1
 MicOpt= -1 -1 -1 -1 -1 -1 -1 -1 -1 -1 -1 -1 -1 -1 -1 -1 -1 -1 -1 -1
 MicOpt= -1 -1 -1 -1 -1 -1 -1 -1 -1 -1 -1 -1 -1 -1 -1 -1
 NAtoms=    176 NQM=      176 NQMF=       0 NMMI=      0 NMMIF=      0
                NMic=       0 NMicF=      0.
                    Isotopes and Nuclear Properties:
 (Nuclear quadrupole moments (NQMom) in fm**2, nuclear magnetic moments (NMagM)
  in nuclear magnetons)

  Atom         1           2           3           4           5           6           7           8           9          10
 IAtWgt=          12          12          12          12          12          14           1          12          12          12
 AtmWgt=  12.0000000  12.0000000  12.0000000  12.0000000  12.0000000  14.0030740   1.0078250  12.0000000  12.0000000  12.0000000
 NucSpn=           0           0           0           0           0           2           1           0           0           0
 AtZEff=  -0.0000000  -0.0000000  -0.0000000  -0.0000000  -0.0000000  -0.0000000  -0.0000000  -0.0000000  -0.0000000  -0.0000000
 NQMom=    0.0000000   0.0000000   0.0000000   0.0000000   0.0000000   2.0440000   0.0000000   0.0000000   0.0000000   0.0000000
 NMagM=    0.0000000   0.0000000   0.0000000   0.0000000   0.0000000   0.4037610   2.7928460   0.0000000   0.0000000   0.0000000
 AtZNuc=   6.0000000   6.0000000   6.0000000   6.0000000   6.0000000   7.0000000   1.0000000   6.0000000   6.0000000   6.0000000

  Atom        11          12          13          14          15          16          17          18          19          20
 IAtWgt=          12          12           1           1           1          12          12          12          12          12
 AtmWgt=  12.0000000  12.0000000   1.0078250   1.0078250   1.0078250  12.0000000  12.0000000  12.0000000  12.0000000  12.0000000
 NucSpn=           0           0           1           1           1           0           0           0           0           0
 AtZEff=  -0.0000000  -0.0000000  -0.0000000  -0.0000000  -0.0000000  -0.0000000  -0.0000000  -0.0000000  -0.0000000  -0.0000000
 NQMom=    0.0000000   0.0000000   0.0000000   0.0000000   0.0000000   0.0000000   0.0000000   0.0000000   0.0000000   0.0000000
 NMagM=    0.0000000   0.0000000   2.7928460   2.7928460   2.7928460   0.0000000   0.0000000   0.0000000   0.0000000   0.0000000
 AtZNuc=   6.0000000   6.0000000   1.0000000   1.0000000   1.0000000   6.0000000   6.0000000   6.0000000   6.0000000   6.0000000

  Atom        21          22          23          24          25          26          27          28          29          30
 IAtWgt=           1          12           1          12           1           1           1          19          12           1
 AtmWgt=   1.0078250  12.0000000   1.0078250  12.0000000   1.0078250   1.0078250   1.0078250  18.9984032  12.0000000   1.0078250
 NucSpn=           1           0           1           0           1           1           1           1           0           1
 AtZEff=  -0.0000000  -0.0000000  -0.0000000  -0.0000000  -0.0000000  -0.0000000  -0.0000000  -0.0000000  -0.0000000  -0.0000000
 NQMom=    0.0000000   0.0000000   0.0000000   0.0000000   0.0000000   0.0000000   0.0000000   0.0000000   0.0000000   0.0000000
 NMagM=    2.7928460   0.0000000   2.7928460   0.0000000   2.7928460   2.7928460   2.7928460   2.6288670   0.0000000   2.7928460
 AtZNuc=   1.0000000   6.0000000   1.0000000   6.0000000   1.0000000   1.0000000   1.0000000   9.0000000   6.0000000   1.0000000

  Atom        31          32          33          34          35          36          37          38          39          40
 IAtWgt=           1           1          12          12          12           1           1          12           1           1
 AtmWgt=   1.0078250   1.0078250  12.0000000  12.0000000  12.0000000   1.0078250   1.0078250  12.0000000   1.0078250   1.0078250
 NucSpn=           1           1           0           0           0           1           1           0           1           1
 AtZEff=  -0.0000000  -0.0000000  -0.0000000  -0.0000000  -0.0000000  -0.0000000  -0.0000000  -0.0000000  -0.0000000  -0.0000000
 NQMom=    0.0000000   0.0000000   0.0000000   0.0000000   0.0000000   0.0000000   0.0000000   0.0000000   0.0000000   0.0000000
 NMagM=    2.7928460   2.7928460   0.0000000   0.0000000   0.0000000   2.7928460   2.7928460   0.0000000   2.7928460   2.7928460
 AtZNuc=   1.0000000   1.0000000   6.0000000   6.0000000   6.0000000   1.0000000   1.0000000   6.0000000   1.0000000   1.0000000

  Atom        41          42          43          44          45          46          47          48          49          50
 IAtWgt=           1           1           1           1          14          16         127           1          12          12
 AtmWgt=   1.0078250   1.0078250   1.0078250   1.0078250  14.0030740  15.9949146 126.9004000   1.0078250  12.0000000  12.0000000
 NucSpn=           1           1           1           1           2           0           5           1           0           0
 AtZEff=  -0.0000000  -0.0000000  -0.0000000  -0.0000000  -0.0000000  -0.0000000  -0.0000000  -0.0000000  -0.0000000  -0.0000000
 NQMom=    0.0000000   0.0000000   0.0000000   0.0000000   2.0440000   0.0000000 -71.0000000   0.0000000   0.0000000   0.0000000
 NMagM=    2.7928460   2.7928460   2.7928460   2.7928460   0.4037610   0.0000000   2.8132800   2.7928460   0.0000000   0.0000000
 AtZNuc=   1.0000000   1.0000000   1.0000000   1.0000000   7.0000000   8.0000000  53.0000000   1.0000000   6.0000000   6.0000000

  Atom        51          52          53          54          55          56          57          58          59          60
 IAtWgt=          12          12          12          12           1           1          12          12           1           1
 AtmWgt=  12.0000000  12.0000000  12.0000000  12.0000000   1.0078250   1.0078250  12.0000000  12.0000000   1.0078250   1.0078250
 NucSpn=           0           0           0           0           1           1           0           0           1           1
 AtZEff=  -0.0000000  -0.0000000  -0.0000000  -0.0000000  -0.0000000  -0.0000000  -0.0000000  -0.0000000  -0.0000000  -0.0000000
 NQMom=    0.0000000   0.0000000   0.0000000   0.0000000   0.0000000   0.0000000   0.0000000   0.0000000   0.0000000   0.0000000
 NMagM=    0.0000000   0.0000000   0.0000000   0.0000000   2.7928460   2.7928460   0.0000000   0.0000000   2.7928460   2.7928460
 AtZNuc=   6.0000000   6.0000000   6.0000000   6.0000000   1.0000000   1.0000000   6.0000000   6.0000000   1.0000000   1.0000000

  Atom        61          62          63          64          65          66          67          68          69          70
 IAtWgt=          12          12           1          12          12          12          12          12          12          12
 AtmWgt=  12.0000000  12.0000000   1.0078250  12.0000000  12.0000000  12.0000000  12.0000000  12.0000000  12.0000000  12.0000000
 NucSpn=           0           0           1           0           0           0           0           0           0           0
 AtZEff=  -0.0000000  -0.0000000  -0.0000000  -0.0000000  -0.0000000  -0.0000000  -0.0000000  -0.0000000  -0.0000000  -0.0000000
 NQMom=    0.0000000   0.0000000   0.0000000   0.0000000   0.0000000   0.0000000   0.0000000   0.0000000   0.0000000   0.0000000
 NMagM=    0.0000000   0.0000000   2.7928460   0.0000000   0.0000000   0.0000000   0.0000000   0.0000000   0.0000000   0.0000000
 AtZNuc=   6.0000000   6.0000000   1.0000000   6.0000000   6.0000000   6.0000000   6.0000000   6.0000000   6.0000000   6.0000000

  Atom        71          72          73          74          75          76          77          78          79          80
 IAtWgt=          12          12           1           1          12           1           1           1          32          16
 AtmWgt=  12.0000000  12.0000000   1.0078250   1.0078250  12.0000000   1.0078250   1.0078250   1.0078250  31.9720718  15.9949146
 NucSpn=           0           0           1           1           0           1           1           1           0           0
 AtZEff=  -0.0000000  -0.0000000  -0.0000000  -0.0000000  -0.0000000  -0.0000000  -0.0000000  -0.0000000  -0.0000000  -0.0000000
 NQMom=    0.0000000   0.0000000   0.0000000   0.0000000   0.0000000   0.0000000   0.0000000   0.0000000   0.0000000   0.0000000
 NMagM=    0.0000000   0.0000000   2.7928460   2.7928460   0.0000000   2.7928460   2.7928460   2.7928460   0.0000000   0.0000000
 AtZNuc=   6.0000000   6.0000000   1.0000000   1.0000000   6.0000000   1.0000000   1.0000000   1.0000000  16.0000000   8.0000000

  Atom        81          82          83          84          85          86          87          88          89          90
 IAtWgt=          16          32          16          16          14          12          12          12          12          12
 AtmWgt=  15.9949146  31.9720718  15.9949146  15.9949146  14.0030740  12.0000000  12.0000000  12.0000000  12.0000000  12.0000000
 NucSpn=           0           0           0           0           2           0           0           0           0           0
 AtZEff=  -0.0000000  -0.0000000  -0.0000000  -0.0000000  -0.0000000  -0.0000000  -0.0000000  -0.0000000  -0.0000000  -0.0000000
 NQMom=    0.0000000   0.0000000   0.0000000   0.0000000   2.0440000   0.0000000   0.0000000   0.0000000   0.0000000   0.0000000
 NMagM=    0.0000000   0.0000000   0.0000000   0.0000000   0.4037610   0.0000000   0.0000000   0.0000000   0.0000000   0.0000000
 AtZNuc=   8.0000000  16.0000000   8.0000000   8.0000000   7.0000000   6.0000000   6.0000000   6.0000000   6.0000000   6.0000000

  Atom        91          92          93          94          95          96          97          98          99         100
 IAtWgt=          12          12          12          12           1          12           1           1           1          12
 AtmWgt=  12.0000000  12.0000000  12.0000000  12.0000000   1.0078250  12.0000000   1.0078250   1.0078250   1.0078250  12.0000000
 NucSpn=           0           0           0           0           1           0           1           1           1           0
 AtZEff=  -0.0000000  -0.0000000  -0.0000000  -0.0000000  -0.0000000  -0.0000000  -0.0000000  -0.0000000  -0.0000000  -0.0000000
 NQMom=    0.0000000   0.0000000   0.0000000   0.0000000   0.0000000   0.0000000   0.0000000   0.0000000   0.0000000   0.0000000
 NMagM=    0.0000000   0.0000000   0.0000000   0.0000000   2.7928460   0.0000000   2.7928460   2.7928460   2.7928460   0.0000000
 AtZNuc=   6.0000000   6.0000000   6.0000000   6.0000000   1.0000000   6.0000000   1.0000000   1.0000000   1.0000000   6.0000000

  Atom       101         102         103         104         105         106         107         108         109         110
 IAtWgt=          12          12          12           1          12          12           1           1           1          12
 AtmWgt=  12.0000000  12.0000000  12.0000000   1.0078250  12.0000000  12.0000000   1.0078250   1.0078250   1.0078250  12.0000000
 NucSpn=           0           0           0           1           0           0           1           1           1           0
 AtZEff=  -0.0000000  -0.0000000  -0.0000000  -0.0000000  -0.0000000  -0.0000000  -0.0000000  -0.0000000  -0.0000000  -0.0000000
 NQMom=    0.0000000   0.0000000   0.0000000   0.0000000   0.0000000   0.0000000   0.0000000   0.0000000   0.0000000   0.0000000
 NMagM=    0.0000000   0.0000000   0.0000000   2.7928460   0.0000000   0.0000000   2.7928460   2.7928460   2.7928460   0.0000000
 AtZNuc=   6.0000000   6.0000000   6.0000000   1.0000000   6.0000000   6.0000000   1.0000000   1.0000000   1.0000000   6.0000000

  Atom       111         112         113         114         115         116         117         118         119         120
 IAtWgt=          19          19          19          12          19          19          19          14          12          12
 AtmWgt=  18.9984032  18.9984032  18.9984032  12.0000000  18.9984032  18.9984032  18.9984032  14.0030740  12.0000000  12.0000000
 NucSpn=           1           1           1           0           1           1           1           2           0           0
 AtZEff=  -0.0000000  -0.0000000  -0.0000000  -0.0000000  -0.0000000  -0.0000000  -0.0000000  -0.0000000  -0.0000000  -0.0000000
 NQMom=    0.0000000   0.0000000   0.0000000   0.0000000   0.0000000   0.0000000   0.0000000   2.0440000   0.0000000   0.0000000
 NMagM=    2.6288670   2.6288670   2.6288670   0.0000000   2.6288670   2.6288670   2.6288670   0.4037610   0.0000000   0.0000000
 AtZNuc=   9.0000000   9.0000000   9.0000000   6.0000000   9.0000000   9.0000000   9.0000000   7.0000000   6.0000000   6.0000000

  Atom       121         122         123         124         125         126         127         128         129         130
 IAtWgt=          12          12          16          16           1           1           1           1          12          12
 AtmWgt=  12.0000000  12.0000000  15.9949146  15.9949146   1.0078250   1.0078250   1.0078250   1.0078250  12.0000000  12.0000000
 NucSpn=           0           0           0           0           1           1           1           1           0           0
 AtZEff=  -0.0000000  -0.0000000  -0.0000000  -0.0000000  -0.0000000  -0.0000000  -0.0000000  -0.0000000  -0.0000000  -0.0000000
 NQMom=    0.0000000   0.0000000   0.0000000   0.0000000   0.0000000   0.0000000   0.0000000   0.0000000   0.0000000   0.0000000
 NMagM=    0.0000000   0.0000000   0.0000000   0.0000000   2.7928460   2.7928460   2.7928460   2.7928460   0.0000000   0.0000000
 AtZNuc=   6.0000000   6.0000000   8.0000000   8.0000000   1.0000000   1.0000000   1.0000000   1.0000000   6.0000000   6.0000000

  Atom       131         132         133         134         135         136         137         138         139         140
 IAtWgt=          12          12          12          14           1          12          12          12          12          12
 AtmWgt=  12.0000000  12.0000000  12.0000000  14.0030740   1.0078250  12.0000000  12.0000000  12.0000000  12.0000000  12.0000000
 NucSpn=           0           0           0           2           1           0           0           0           0           0
 AtZEff=  -0.0000000  -0.0000000  -0.0000000  -0.0000000  -0.0000000  -0.0000000  -0.0000000  -0.0000000  -0.0000000  -0.0000000
 NQMom=    0.0000000   0.0000000   0.0000000   2.0440000   0.0000000   0.0000000   0.0000000   0.0000000   0.0000000   0.0000000
 NMagM=    0.0000000   0.0000000   0.0000000   0.4037610   2.7928460   0.0000000   0.0000000   0.0000000   0.0000000   0.0000000
 AtZNuc=   6.0000000   6.0000000   6.0000000   7.0000000   1.0000000   6.0000000   6.0000000   6.0000000   6.0000000   6.0000000

  Atom       141         142         143         144         145         146         147         148         149         150
 IAtWgt=           1           1           1          12          12          12          12          12           1          12
 AtmWgt=   1.0078250   1.0078250   1.0078250  12.0000000  12.0000000  12.0000000  12.0000000  12.0000000   1.0078250  12.0000000
 NucSpn=           1           1           1           0           0           0           0           0           1           0
 AtZEff=  -0.0000000  -0.0000000  -0.0000000  -0.0000000  -0.0000000  -0.0000000  -0.0000000  -0.0000000  -0.0000000  -0.0000000
 NQMom=    0.0000000   0.0000000   0.0000000   0.0000000   0.0000000   0.0000000   0.0000000   0.0000000   0.0000000   0.0000000
 NMagM=    2.7928460   2.7928460   2.7928460   0.0000000   0.0000000   0.0000000   0.0000000   0.0000000   2.7928460   0.0000000
 AtZNuc=   1.0000000   1.0000000   1.0000000   6.0000000   6.0000000   6.0000000   6.0000000   6.0000000   1.0000000   6.0000000

  Atom       151         152         153         154         155         156         157         158         159         160
 IAtWgt=           1          12           1           1           1          19          12           1           1           1
 AtmWgt=   1.0078250  12.0000000   1.0078250   1.0078250   1.0078250  18.9984032  12.0000000   1.0078250   1.0078250   1.0078250
 NucSpn=           1           0           1           1           1           1           0           1           1           1
 AtZEff=  -0.0000000  -0.0000000  -0.0000000  -0.0000000  -0.0000000  -0.0000000  -0.0000000  -0.0000000  -0.0000000  -0.0000000
 NQMom=    0.0000000   0.0000000   0.0000000   0.0000000   0.0000000   0.0000000   0.0000000   0.0000000   0.0000000   0.0000000
 NMagM=    2.7928460   0.0000000   2.7928460   2.7928460   2.7928460   2.6288670   0.0000000   2.7928460   2.7928460   2.7928460
 AtZNuc=   1.0000000   6.0000000   1.0000000   1.0000000   1.0000000   9.0000000   6.0000000   1.0000000   1.0000000   1.0000000

  Atom       161         162         163         164         165         166         167         168         169         170
 IAtWgt=          12          12          12           1           1          12           1           1           1           1
 AtmWgt=  12.0000000  12.0000000  12.0000000   1.0078250   1.0078250  12.0000000   1.0078250   1.0078250   1.0078250   1.0078250
 NucSpn=           0           0           0           1           1           0           1           1           1           1
 AtZEff=  -0.0000000  -0.0000000  -0.0000000  -0.0000000  -0.0000000  -0.0000000  -0.0000000  -0.0000000  -0.0000000  -0.0000000
 NQMom=    0.0000000   0.0000000   0.0000000   0.0000000   0.0000000   0.0000000   0.0000000   0.0000000   0.0000000   0.0000000
 NMagM=    0.0000000   0.0000000   0.0000000   2.7928460   2.7928460   0.0000000   2.7928460   2.7928460   2.7928460   2.7928460
 AtZNuc=   6.0000000   6.0000000   6.0000000   1.0000000   1.0000000   6.0000000   1.0000000   1.0000000   1.0000000   1.0000000

  Atom       171         172         173         174         175         176
 IAtWgt=           1           1          14          16           1           1
 AtmWgt=   1.0078250   1.0078250  14.0030740  15.9949146   1.0078250   1.0078250
 NucSpn=           1           1           2           0           1           1
 AtZEff=  -0.0000000  -0.0000000  -0.0000000  -0.0000000  -0.0000000  -0.0000000
 NQMom=    0.0000000   0.0000000   2.0440000   0.0000000   0.0000000   0.0000000
 NMagM=    2.7928460   2.7928460   0.4037610   0.0000000   2.7928460   2.7928460
 AtZNuc=   1.0000000   1.0000000   7.0000000   8.0000000   1.0000000   1.0000000
 Leave Link  101 at Sun Nov 17 17:42:29 2024, MaxMem=  7247757312 cpu:               1.7 elap:               0.0
 (Enter /ihome/crc/install/gaussian/c01/avx2/tar/g16/l202.exe)
 Symmetry turned off by external request.
 Stoichiometry    C86H65F8IN6O8S2
 Framework group  C1[X(C86H65F8IN6O8S2)]
 Deg. of freedom   522
 Full point group                 C1      NOp   1
                          Input orientation:                          
 ---------------------------------------------------------------------
 Center     Atomic      Atomic             Coordinates (Angstroms)
 Number     Number       Type             X           Y           Z
 ---------------------------------------------------------------------
      1          6           0        2.430615   -2.156139   -1.272724
      2          6           0        1.213436   -2.721317   -1.930136
      3          6           0        0.498581   -3.759256   -1.147666
      4          6           0        0.976370   -4.140020    0.057405
      5          6           0        2.181325   -3.529223    0.573752
      6          7           0        2.844544   -2.546544   -0.120904
      7          1           0        0.440509   -4.896230    0.627279
      8          6           0        3.227721   -1.094842   -1.944640
      9          6           0        4.647081   -1.085787   -1.906184
     10          6           0        5.330771    0.011792   -2.441486
     11          6           0        3.263074    1.068999   -3.094669
     12          6           0        4.649920    1.081682   -3.020428
     13          1           0        6.421555    0.010752   -2.429563
     14          1           0        5.206451    1.927819   -3.426382
     15          1           0        2.689157    1.884791   -3.533992
     16          6           0        2.581853   -0.015394   -2.562422
     17          6           0        5.457756   -2.215358   -1.361984
     18          6           0        6.571274   -1.950498   -0.553308
     19          6           0        5.166690   -3.551211   -1.676906
     20          6           0        7.348897   -2.991061   -0.041709
     21          1           0        6.824296   -0.917426   -0.312282
     22          6           0        5.941045   -4.590053   -1.168888
     23          1           0        4.321813   -3.781660   -2.328970
     24          6           0        7.033044   -4.314822   -0.342091
     25          1           0        8.206578   -2.761549    0.593422
     26          1           0        5.684590   -5.620728   -1.418212
     27          1           0        7.637580   -5.130017    0.059651
     28          9           0        1.249762    0.008468   -2.634203
     29          6           0       -0.749961   -4.336003   -1.728982
     30          1           0       -1.270606   -3.595008   -2.346996
     31          1           0       -0.499474   -5.210083   -2.349958
     32          1           0       -1.425929   -4.667140   -0.930298
     33          6           0        2.130953   -4.840010    2.654561
     34          6           0        3.868608   -3.151407    2.305050
     35          6           0        3.232457   -5.748912    3.185834
     36          1           0        1.388205   -5.462667    2.149402
     37          1           0        1.658633   -4.292229    3.486868
     38          6           0        4.866121   -4.165725    2.842549
     39          1           0        4.324869   -2.525460    1.533112
     40          1           0        3.504246   -2.516051    3.128850
     41          1           0        3.625423   -6.354163    2.351470
     42          1           0        2.804773   -6.423607    3.939311
     43          1           0        5.279028   -4.752371    2.000190
     44          1           0        5.690070   -3.632022    3.334759
     45          7           0        2.699131   -3.844097    1.742849
     46          8           0        4.269060   -5.015098    3.787237
     47         53           0        1.751301   -3.499012   -3.884983
     48          1           0        0.506633   -1.919778   -2.182974
     49          6           0       -5.067938    4.185575   -1.345063
     50          6           0       -4.618338    2.984888   -0.849508
     51          6           0       -3.225214    2.736693   -0.699592
     52          6           0       -2.308891    3.752152   -1.094366
     53          6           0       -2.802994    4.989865   -1.593437
     54          6           0       -4.153294    5.203513   -1.714031
     55          1           0       -6.139541    4.355274   -1.460885
     56          1           0       -5.334016    2.207049   -0.581454
     57          6           0       -2.718229    1.492447   -0.198348
     58          6           0       -0.919861    3.515782   -0.976389
     59          1           0       -2.084753    5.759254   -1.883484
     60          1           0       -4.527089    6.152531   -2.101590
     61          6           0       -0.430684    2.300349   -0.535230
     62          6           0       -1.351813    1.262583   -0.175554
     63          1           0       -0.217955    4.311128   -1.233095
     64          6           0       -3.693348    0.462676    0.299194
     65          6           0       -3.841859   -0.762632   -0.322312
     66          6           0       -4.404919    0.735059    1.516595
     67          6           0       -4.650571   -1.793826    0.251212
     68          6           0       -5.283869   -0.258368    2.037890
     69          6           0       -4.250764    1.947225    2.247418
     70          6           0       -5.376673   -1.514230    1.394357
     71          6           0       -6.014326    0.001395    3.231335
     72          6           0       -4.962473    2.167820    3.402759
     73          1           0       -3.555216    2.707100    1.892094
     74          1           0       -6.005030   -2.292852    1.831739
     75          6           0       -5.862909    1.191772    3.896860
     76          1           0       -6.687959   -0.770908    3.607862
     77          1           0       -4.828181    3.103386    3.947948
     78          1           0       -6.423392    1.385675    4.812735
     79         16           0       -0.806011   -0.418625    0.166302
     80          8           0       -1.399165   -0.771049    1.423554
     81          8           0        0.625791   -0.500684    0.110034
     82         16           0       -2.782781   -1.072960   -1.726133
     83          8           0       -2.843091    0.092185   -2.556319
     84          8           0       -3.161535   -2.302186   -2.351844
     85          7           0       -1.364401   -1.266637   -1.047620
     86          6           0        0.985766    2.176632   -0.362861
     87          6           0        2.179298    2.140802   -0.148839
     88          6           0       -4.677598   -3.149516   -0.215656
     89          6           0       -4.705008   -4.341121   -0.446226
     90          6           0       -4.669167   -5.739234   -0.752195
     91          6           0       -5.221474   -6.702324    0.117791
     92          6           0       -4.034290   -6.173280   -1.926577
     93          6           0       -5.154794   -8.057707   -0.193655
     94          6           0       -3.967932   -7.531034   -2.230194
     95          1           0       -3.602281   -5.425485   -2.593196
     96          6           0       -4.531725   -8.473455   -1.371048
     97          1           0       -5.589053   -8.791063    0.486853
     98          1           0       -3.473471   -7.854214   -3.147818
     99          1           0       -4.483928   -9.536515   -1.610723
    100          6           0        3.546653    1.930920    0.217169
    101          6           0        3.871041    0.741353    0.890672
    102          6           0        4.565034    2.866897   -0.045781
    103          6           0        5.176031    0.511934    1.315687
    104          1           0        3.075937    0.013507    1.068197
    105          6           0        5.872217    2.621201    0.364966
    106          6           0        6.177516    1.447219    1.053260
    107          1           0        5.414867   -0.408602    1.851628
    108          1           0        6.651321    3.354135    0.155154
    109          1           0        7.201273    1.265617    1.383950
    110          6           0        4.226818    4.143184   -0.769917
    111          9           0        5.298683    4.921350   -0.936445
    112          9           0        3.316213    4.866171   -0.110520
    113          9           0        3.721750    3.913427   -1.988447
    114          6           0       -5.873606   -6.252208    1.399686
    115          9           0       -6.368232   -7.279585    2.096121
    116          9           0       -6.882275   -5.402804    1.184828
    117          9           0       -5.007959   -5.622802    2.207001
    118          7           0        1.568911   -7.800141    1.441350
    119          6           0        1.371826   -9.073963    1.604957
    120          6           0        2.058320   -9.982809    0.616724
    121          6           0        2.631169   -8.972164   -0.370537
    122          6           0        2.386030   -7.629915    0.321925
    123          8           0        2.835075   -6.565023   -0.031263
    124          8           0        0.626871   -9.583897    2.532218
    125          1           0        2.826067  -10.573945    1.137947
    126          1           0        1.325183  -10.684004    0.194018
    127          1           0        2.084022   -8.962911   -1.325552
    128          1           0        3.698301   -9.091138   -0.595651
    129          6           0       -1.521104   -7.315040    1.870466
    130          6           0       -1.941112   -6.035352    1.565059
    131          6           0       -1.824008   -5.031674    2.547563
    132          6           0       -1.330591   -5.382129    3.793516
    133          6           0       -0.954830   -6.726798    4.051508
    134          7           0       -1.009122   -7.639155    3.073042
    135          1           0       -1.265690   -4.620447    4.568152
    136          6           0       -1.602086   -8.417763    0.868874
    137          6           0       -2.160768   -9.678888    1.171930
    138          6           0       -2.121348  -10.697939    0.211118
    139          6           0       -0.978970   -9.254642   -1.350140
    140          6           0       -1.539322  -10.490391   -1.038226
    141          1           0       -2.571724  -11.663392    0.447331
    142          1           0       -1.524826  -11.295077   -1.774977
    143          1           0       -0.510498   -9.049938   -2.313747
    144          6           0       -1.024655   -8.250863   -0.392193
    145          6           0       -2.786031   -9.955894    2.495041
    146          6           0       -2.441338  -11.113468    3.203908
    147          6           0       -3.723299   -9.074730    3.052693
    148          6           0       -3.015132  -11.379423    4.448335
    149          1           0       -1.698179  -11.796729    2.787791
    150          6           0       -4.301338   -9.342919    4.290258
    151          1           0       -3.990303   -8.164464    2.513377
    152          6           0       -3.945968  -10.496081    4.994607
    153          1           0       -2.729077  -12.280309    4.994291
    154          1           0       -5.033444   -8.646731    4.703398
    155          1           0       -4.395500  -10.704624    5.967095
    156          9           0       -0.444615   -7.081442   -0.690005
    157          6           0       -2.265915   -3.632479    2.243804
    158          1           0       -1.978118   -3.329959    1.225818
    159          1           0       -3.364864   -3.573646    2.296947
    160          1           0       -1.844866   -2.903579    2.946388
    161          6           0        0.047791   -6.257044    6.266538
    162          6           0       -0.236391   -8.562618    5.508202
    163          6           0       -0.230284   -6.751932    7.676978
    164          1           0       -0.359006   -5.245946    6.165705
    165          1           0        1.142422   -6.206043    6.109667
    166          6           0       -0.494814   -8.931283    6.960318
    167          1           0       -0.878646   -9.182930    4.868960
    168          1           0        0.819406   -8.771619    5.249921
    169          1           0       -1.314338   -6.666855    7.885368
    170          1           0        0.315349   -6.133517    8.402007
    171          1           0       -1.583638   -8.883140    7.155992
    172          1           0       -0.152021   -9.957557    7.148387
    173          7           0       -0.550648   -7.156670    5.289806
    174          8           0        0.191156   -8.081370    7.845587
    175          1           0       -2.358655   -5.812883    0.583280
    176          1           0       -0.001806   -8.848516    2.914379
 ---------------------------------------------------------------------
 Rotational constants (GHZ):           0.0184105           0.0115949           0.0093249
 Leave Link  202 at Sun Nov 17 17:42:29 2024, MaxMem=  7247757312 cpu:               1.8 elap:               0.1
 (Enter /ihome/crc/install/gaussian/c01/avx2/tar/g16/l301.exe)
 Standard basis: def2TZVPP (5D, 7F)
 Ernie: Thresh=  0.10000D-02 Tol=  0.10000D-05 Strict=F.
  4392 basis functions,  6860 primitive gaussians,  5018 cartesian basis functions
   408 alpha electrons      408 beta electrons
       nuclear repulsion energy     27396.3897100038 Hartrees.
 IExCor=  402 DFT=T Ex+Corr=B3LYP ExCW=0 ScaHFX=  0.200000
 ScaDFX=  0.800000  0.720000  1.000000  0.810000 ScalE2=  1.000000  1.000000
 IRadAn=      5 IRanWt=     -1 IRanGd=            0 ICorTp=0 IEmpDi=141
 NAtoms=  176 NActive=  176 NUniq=  176 SFac= 1.00D+00 NAtFMM=   60 NAOKFM=T Big=T
 Integral buffers will be    131072 words long.
 Raffenetti 2 integral format.
 Two-electron integral symmetry is turned off.
 R6Disp:  Grimme-D3(BJ) Dispersion energy=       -0.5878141748 Hartrees.
 Nuclear repulsion after empirical dispersion term =    27395.8018958290 Hartrees.
 ------------------------------------------------------------------------------
 Polarizable Continuum Model (PCM)
 =================================
 Model                : PCM.
 Atomic radii         : SMD-Coulomb.
 Polarization charges : Total charges.
 Charge compensation  : None.
 Solution method      : On-the-fly selection.
 Cavity type          : VdW (van der Waals Surface) (Alpha=1.000).
 Cavity algorithm     : GePol (No added spheres)
                        Default sphere list used, NSphG=  176.
                        Lebedev-Laikov grids with approx.  5.0 points / Ang**2.
                        Smoothing algorithm: York/Karplus (Gamma=1.0000).
                        Polarization charges: spherical gaussians, with
                                              point-specific exponents (IZeta= 3).
                        Self-potential: point-specific (ISelfS= 7).
                        Self-field    : sphere-specific E.n sum rule (ISelfD= 2).
 Solvent              : PropylEthanoate, Eps=   5.520500 Eps(inf)=   1.916010
 ------------------------------------------------------------------------------
 GePol: Number of generator spheres                  =     176
 GePol: Total number of spheres                      =     176
 GePol: Number of exposed spheres                    =     175 ( 99.43%)
 GePol: Number of points                             =   12155
 GePol: Average weight of points                     =       0.11
 GePol: Minimum weight of points                     =   0.69D-11
 GePol: Maximum weight of points                     =    0.21501
 GePol: Number of points with low weight             =     785
 GePol: Fraction of low-weight points (<1% of avg)   =       6.46%
 GePol: Cavity surface area                          =   1322.318 Ang**2
 GePol: Cavity volume                                =   1554.954 Ang**3
 ------------------------------------------------------------------------------
 Atomic radii for non-electrostatic terms: SMD-CDS.
 ------------------------------------------------------------------------------
 PCM non-electrostatic energy =        -0.0306687755 Hartrees.
 Nuclear repulsion after PCM non-electrostatic terms =    27395.7712270534 Hartrees.
 Leave Link  301 at Sun Nov 17 17:42:29 2024, MaxMem=  7247757312 cpu:               3.3 elap:               0.1
 (Enter /ihome/crc/install/gaussian/c01/avx2/tar/g16/l302.exe)
 NPDir=0 NMtPBC=     1 NCelOv=     1 NCel=       1 NClECP=     1 NCelD=      1
         NCelK=      1 NCelE2=     1 NClLst=     1 CellRange=     0.0.
 One-electron integrals computed using PRISM.
   1 Symmetry operations used in ECPInt.
 ECPInt:  NShTT= 1316253 NPrTT= 3826671 LenC2=  742017 LenP2D= 1351361.
 LDataN:  DoStor=T MaxTD1= 7 Len=  274
 Number of processors reduced to  10 by ecpmxn.
 NBasis=  4392 RedAO= T EigKep=  2.08D-06  NBF=  4392
 NBsUse=  4392 1.00D-06 EigRej= -1.00D+00 NBFU=  4392
 Precomputing XC quadrature grid using
 IXCGrd= 4 IRadAn=           5 IRanWt=          -1 IRanGd=           0 AccXCQ= 0.00D+00.
 Defaulting to unpruned grid for atomic number  53.
 Generated NRdTot=       0 NPtTot=           0 NUsed=           0 NTot=          32
 NSgBfM=  3634  3566  3607  3620  3634 MxSgAt=   176 MxSgA2=   176.
 Leave Link  302 at Sun Nov 17 17:43:06 2024, MaxMem=  7247757312 cpu:            1685.3 elap:              36.3
 (Enter /ihome/crc/install/gaussian/c01/avx2/tar/g16/l303.exe)
 DipDrv:  MaxL=1.
 Leave Link  303 at Sun Nov 17 17:43:08 2024, MaxMem=  7247757312 cpu:              57.0 elap:               1.6
 (Enter /ihome/crc/install/gaussian/c01/avx2/tar/g16/l401.exe)
 Initial guess from the checkpoint file:  "alkyneCF3_S-ax-R_01_iodi_INT.chk"
 B after Tr=     0.000000    0.000000    0.000000
         Rot=    1.000000   -0.000000   -0.000000   -0.000000 Ang=   0.00 deg.
 Guess basis will be translated and rotated to current coordinates.
 JPrj=2 DoOrth=T DoCkMO=T.
 Leave Link  401 at Sun Nov 17 17:43:18 2024, MaxMem=  7247757312 cpu:             480.6 elap:              10.2
 (Enter /ihome/crc/install/gaussian/c01/avx2/tar/g16/l502.exe)
 Two-electron integral symmetry not used.
 Closed shell SCF:
 Using DIIS extrapolation, IDIIS=  1040.
 NGot=  7247757312 LenX=  7197121040 LenY=  7171935698
 Requested convergence on RMS density matrix=1.00D-08 within 128 cycles.
 Requested convergence on MAX density matrix=1.00D-06.
 Requested convergence on             energy=1.00D-06.
 No special actions if energy rises.
 Fock matrices will be formed incrementally for  20 cycles.

 Cycle   1  Pass 1  IDiag  1:
 FoFJK:  IHMeth= 1 ICntrl=       0 DoSepK=F KAlg= 0 I1Cent=           0 FoldK=F
 IRaf= 500000000 NMat=       1 IRICut=       1 DoRegI=T DoRafI=F ISym2E= 0 IDoP0=0 IntGTp=1.
 FoFCou: FMM=T IPFlag=           0 FMFlag=      100000 FMFlg1=        2001
         NFxFlg=           0 DoJE=F BraDBF=F KetDBF=F FulRan=T
         wScrn=  0.000000 ICntrl=         0 IOpCl=  0 I1Cent=           0 NGrid=           0
         NMat0=    1 NMatS0=      1 NMatT0=    0 NMatD0=    1 NMtDS0=    0 NMtDT0=    0
 Symmetry not used in FoFCou.
 FMM levels:  10  Number of levels for PrismC:   9
 Defaulting to unpruned grid for atomic number  53.
 Defaulting to unpruned grid for atomic number  53.
 Defaulting to unpruned grid for atomic number  53.
 Defaulting to unpruned grid for atomic number  53.
 Defaulting to unpruned grid for atomic number  53.
 Defaulting to unpruned grid for atomic number  53.
 Defaulting to unpruned grid for atomic number  53.
 Defaulting to unpruned grid for atomic number  53.
 Defaulting to unpruned grid for atomic number  53.
 Defaulting to unpruned grid for atomic number  53.
 Defaulting to unpruned grid for atomic number  53.
 Defaulting to unpruned grid for atomic number  53.
 Defaulting to unpruned grid for atomic number  53.
 Defaulting to unpruned grid for atomic number  53.
 Defaulting to unpruned grid for atomic number  53.
 Defaulting to unpruned grid for atomic number  53.
 Defaulting to unpruned grid for atomic number  53.
 Defaulting to unpruned grid for atomic number  53.
 Defaulting to unpruned grid for atomic number  53.
 Defaulting to unpruned grid for atomic number  53.
 Defaulting to unpruned grid for atomic number  53.
 Defaulting to unpruned grid for atomic number  53.
 Defaulting to unpruned grid for atomic number  53.
 Defaulting to unpruned grid for atomic number  53.
 Defaulting to unpruned grid for atomic number  53.
 Defaulting to unpruned grid for atomic number  53.
 Defaulting to unpruned grid for atomic number  53.
 Defaulting to unpruned grid for atomic number  53.
 Defaulting to unpruned grid for atomic number  53.
 Defaulting to unpruned grid for atomic number  53.
 Defaulting to unpruned grid for atomic number  53.
 Defaulting to unpruned grid for atomic number  53.
 Defaulting to unpruned grid for atomic number  53.
 Defaulting to unpruned grid for atomic number  53.
 Defaulting to unpruned grid for atomic number  53.
 Defaulting to unpruned grid for atomic number  53.
 Defaulting to unpruned grid for atomic number  53.
 Defaulting to unpruned grid for atomic number  53.
 Defaulting to unpruned grid for atomic number  53.
 Defaulting to unpruned grid for atomic number  53.
 Defaulting to unpruned grid for atomic number  53.
 Defaulting to unpruned grid for atomic number  53.
 Defaulting to unpruned grid for atomic number  53.
 Defaulting to unpruned grid for atomic number  53.
 Defaulting to unpruned grid for atomic number  53.
 Defaulting to unpruned grid for atomic number  53.
 Defaulting to unpruned grid for atomic number  53.
 Defaulting to unpruned grid for atomic number  53.
 Inv3:  Mode=1 IEnd=   443232075.
 Iteration    1 A*A^-1 deviation from unit magnitude is 4.00D-15 for   1270.
 Iteration    1 A*A^-1 deviation from orthogonality  is 2.63D-15 for   6634   2610.
 Iteration    1 A^-1*A deviation from unit magnitude is 4.00D-15 for    246.
 Iteration    1 A^-1*A deviation from orthogonality  is 3.68D-15 for   8853   8821.
 E= -6139.31844638915    
 DIIS: error= 4.98D-02 at cycle   1 NSaved=   1.
 NSaved= 1 IEnMin= 1 EnMin= -6139.31844638915     IErMin= 1 ErrMin= 4.98D-02
 ErrMax= 4.98D-02  0.00D+00 EMaxC= 1.00D-01 BMatC= 3.47D+01 BMatP= 3.47D+01
 IDIUse=3 WtCom= 5.02D-01 WtEn= 4.98D-01
 Coeff-Com:  0.100D+01
 Coeff-En:   0.100D+01
 Coeff:      0.100D+01
 Gap=     0.105 Goal=   None    Shift=    0.000
 GapD=    0.105 DampG=1.000 DampE=0.500 DampFc=0.5000 IDamp=-1.
 Damping current iteration by 5.00D-01
 RMSDP=1.34D-02 MaxDP=6.51D+00              OVMax= 3.75D-02

 Cycle   2  Pass 1  IDiag  1:
 RMSU=  1.37D-03    CP:  5.44D-01
 E= -6140.65983034405     Delta-E=       -1.341383954896 Rises=F Damp=T
 DIIS: error= 2.50D-02 at cycle   2 NSaved=   2.
 NSaved= 2 IEnMin= 2 EnMin= -6140.65983034405     IErMin= 2 ErrMin= 2.50D-02
 ErrMax= 2.50D-02  0.00D+00 EMaxC= 1.00D-01 BMatC= 8.77D+00 BMatP= 3.47D+01
 IDIUse=3 WtCom= 7.50D-01 WtEn= 2.50D-01
 Coeff-Com: -0.101D+01 0.201D+01
 Coeff-En:   0.000D+00 0.100D+01
 Coeff:     -0.756D+00 0.176D+01
 Gap=     0.104 Goal=   None    Shift=    0.000
 RMSDP=6.66D-03 MaxDP=3.20D+00 DE=-1.34D+00 OVMax= 1.84D-02

 Cycle   3  Pass 1  IDiag  1:
 RMSU=  3.01D-04    CP:  9.46D-02  2.04D+00
 E= -6141.99893150873     Delta-E=       -1.339101164682 Rises=F Damp=F
 DIIS: error= 6.56D-04 at cycle   3 NSaved=   3.
 NSaved= 3 IEnMin= 3 EnMin= -6141.99893150873     IErMin= 3 ErrMin= 6.56D-04
 ErrMax= 6.56D-04  0.00D+00 EMaxC= 1.00D-01 BMatC= 1.48D-02 BMatP= 8.77D+00
 IDIUse=3 WtCom= 9.93D-01 WtEn= 6.56D-03
 Coeff-Com: -0.408D+00 0.810D+00 0.598D+00
 Coeff-En:   0.000D+00 0.000D+00 0.100D+01
 Coeff:     -0.405D+00 0.804D+00 0.601D+00
 Gap=     0.102 Goal=   None    Shift=    0.000
 RMSDP=8.22D-05 MaxDP=3.20D-02 DE=-1.34D+00 OVMax= 1.92D-02

 Cycle   4  Pass 1  IDiag  1:
 RMSU=  5.54D-05    CP:  9.29D-02  2.03D+00  8.17D-01
 E= -6142.01155489782     Delta-E=       -0.012623389095 Rises=F Damp=F
 DIIS: error= 2.89D-04 at cycle   4 NSaved=   4.
 NSaved= 4 IEnMin= 4 EnMin= -6142.01155489782     IErMin= 4 ErrMin= 2.89D-04
 ErrMax= 2.89D-04  0.00D+00 EMaxC= 1.00D-01 BMatC= 1.63D-03 BMatP= 1.48D-02
 IDIUse=3 WtCom= 9.97D-01 WtEn= 2.89D-03
 Coeff-Com: -0.193D+00 0.384D+00 0.345D+00 0.465D+00
 Coeff-En:   0.000D+00 0.000D+00 0.000D+00 0.100D+01
 Coeff:     -0.193D+00 0.382D+00 0.344D+00 0.466D+00
 Gap=     0.104 Goal=   None    Shift=    0.000
 RMSDP=1.97D-05 MaxDP=5.11D-03 DE=-1.26D-02 OVMax= 6.70D-03

 Cycle   5  Pass 1  IDiag  1:
 RMSU=  1.67D-05    CP:  9.30D-02  2.04D+00  8.29D-01  8.26D-01
 E= -6142.01285401415     Delta-E=       -0.001299116324 Rises=F Damp=F
 DIIS: error= 8.35D-05 at cycle   5 NSaved=   5.
 NSaved= 5 IEnMin= 5 EnMin= -6142.01285401415     IErMin= 5 ErrMin= 8.35D-05
 ErrMax= 8.35D-05  0.00D+00 EMaxC= 1.00D-01 BMatC= 1.80D-04 BMatP= 1.63D-03
 IDIUse=1 WtCom= 1.00D+00 WtEn= 0.00D+00
 Coeff-Com: -0.584D-01 0.116D+00 0.126D+00 0.277D+00 0.540D+00
 Coeff:     -0.584D-01 0.116D+00 0.126D+00 0.277D+00 0.540D+00
 Gap=     0.103 Goal=   None    Shift=    0.000
 RMSDP=9.24D-06 MaxDP=3.13D-03 DE=-1.30D-03 OVMax= 2.81D-03

 Cycle   6  Pass 1  IDiag  1:
 RMSU=  6.23D-06    CP:  9.32D-02  2.04D+00  8.47D-01  7.95D-01  8.10D-01
 E= -6142.01298717253     Delta-E=       -0.000133158384 Rises=F Damp=F
 DIIS: error= 5.58D-05 at cycle   6 NSaved=   6.
 NSaved= 6 IEnMin= 6 EnMin= -6142.01298717253     IErMin= 6 ErrMin= 5.58D-05
 ErrMax= 5.58D-05  0.00D+00 EMaxC= 1.00D-01 BMatC= 2.78D-05 BMatP= 1.80D-04
 IDIUse=1 WtCom= 1.00D+00 WtEn= 0.00D+00
 Coeff-Com: -0.145D-01 0.287D-01 0.397D-01 0.119D+00 0.335D+00 0.492D+00
 Coeff:     -0.145D-01 0.287D-01 0.397D-01 0.119D+00 0.335D+00 0.492D+00
 Gap=     0.103 Goal=   None    Shift=    0.000
 RMSDP=3.20D-06 MaxDP=1.04D-03 DE=-1.33D-04 OVMax= 1.12D-03

 Cycle   7  Pass 1  IDiag  1:
 RMSU=  2.25D-06    CP:  9.32D-02  2.04D+00  8.48D-01  8.06D-01  8.05D-01
                    CP:  6.54D-01
 E= -6142.01300953099     Delta-E=       -0.000022358454 Rises=F Damp=F
 DIIS: error= 1.84D-05 at cycle   7 NSaved=   7.
 NSaved= 7 IEnMin= 7 EnMin= -6142.01300953099     IErMin= 7 ErrMin= 1.84D-05
 ErrMax= 1.84D-05  0.00D+00 EMaxC= 1.00D-01 BMatC= 3.58D-06 BMatP= 2.78D-05
 IDIUse=1 WtCom= 1.00D+00 WtEn= 0.00D+00
 Coeff-Com: -0.785D-03 0.154D-02 0.658D-02 0.354D-01 0.130D+00 0.305D+00
 Coeff-Com:  0.522D+00
 Coeff:     -0.785D-03 0.154D-02 0.658D-02 0.354D-01 0.130D+00 0.305D+00
 Coeff:      0.522D+00
 Gap=     0.103 Goal=   None    Shift=    0.000
 RMSDP=1.20D-06 MaxDP=4.90D-04 DE=-2.24D-05 OVMax= 3.53D-04

 Cycle   8  Pass 1  IDiag  1:
 RMSU=  7.00D-07    CP:  9.32D-02  2.04D+00  8.50D-01  8.08D-01  8.11D-01
                    CP:  7.21D-01  6.80D-01
 E= -6142.01301264165     Delta-E=       -0.000003110665 Rises=F Damp=F
 DIIS: error= 7.58D-06 at cycle   8 NSaved=   8.
 NSaved= 8 IEnMin= 8 EnMin= -6142.01301264165     IErMin= 8 ErrMin= 7.58D-06
 ErrMax= 7.58D-06  0.00D+00 EMaxC= 1.00D-01 BMatC= 4.23D-07 BMatP= 3.58D-06
 IDIUse=1 WtCom= 1.00D+00 WtEn= 0.00D+00
 Coeff-Com:  0.889D-03-0.177D-02 0.576D-04 0.104D-01 0.472D-01 0.137D+00
 Coeff-Com:  0.323D+00 0.484D+00
 Coeff:      0.889D-03-0.177D-02 0.576D-04 0.104D-01 0.472D-01 0.137D+00
 Coeff:      0.323D+00 0.484D+00
 Gap=     0.103 Goal=   None    Shift=    0.000
 RMSDP=3.70D-07 MaxDP=1.78D-04 DE=-3.11D-06 OVMax= 1.12D-04

 Cycle   9  Pass 1  IDiag  1:
 RMSU=  2.73D-07    CP:  9.32D-02  2.04D+00  8.50D-01  8.09D-01  8.12D-01
                    CP:  7.25D-01  7.16D-01  6.88D-01
 E= -6142.01301299801     Delta-E=       -0.000000356358 Rises=F Damp=F
 DIIS: error= 2.62D-06 at cycle   9 NSaved=   9.
 NSaved= 9 IEnMin= 9 EnMin= -6142.01301299801     IErMin= 9 ErrMin= 2.62D-06
 ErrMax= 2.62D-06  0.00D+00 EMaxC= 1.00D-01 BMatC= 4.94D-08 BMatP= 4.23D-07
 IDIUse=1 WtCom= 1.00D+00 WtEn= 0.00D+00
 Coeff-Com:  0.641D-03-0.127D-02-0.910D-03 0.174D-02 0.121D-01 0.417D-01
 Coeff-Com:  0.127D+00 0.297D+00 0.522D+00
 Coeff:      0.641D-03-0.127D-02-0.910D-03 0.174D-02 0.121D-01 0.417D-01
 Coeff:      0.127D+00 0.297D+00 0.522D+00
 Gap=     0.103 Goal=   None    Shift=    0.000
 RMSDP=1.35D-07 MaxDP=5.25D-05 DE=-3.56D-07 OVMax= 3.57D-05

 Cycle  10  Pass 1  IDiag  1:
 RMSU=  8.57D-08    CP:  9.32D-02  2.04D+00  8.49D-01  8.10D-01  8.15D-01
                    CP:  7.22D-01  7.28D-01  7.35D-01  7.35D-01
 E= -6142.01301303885     Delta-E=       -0.000000040844 Rises=F Damp=F
 DIIS: error= 8.46D-07 at cycle  10 NSaved=  10.
 NSaved=10 IEnMin=10 EnMin= -6142.01301303885     IErMin=10 ErrMin= 8.46D-07
 ErrMax= 8.46D-07  0.00D+00 EMaxC= 1.00D-01 BMatC= 5.65D-09 BMatP= 4.94D-08
 IDIUse=1 WtCom= 1.00D+00 WtEn= 0.00D+00
 Coeff-Com:  0.277D-03-0.549D-03-0.556D-03-0.151D-03 0.199D-02 0.905D-02
 Coeff-Com:  0.379D-01 0.120D+00 0.311D+00 0.521D+00
 Coeff:      0.277D-03-0.549D-03-0.556D-03-0.151D-03 0.199D-02 0.905D-02
 Coeff:      0.379D-01 0.120D+00 0.311D+00 0.521D+00
 Gap=     0.103 Goal=   None    Shift=    0.000
 RMSDP=4.13D-08 MaxDP=8.97D-06 DE=-4.08D-08 OVMax= 1.36D-05

 Cycle  11  Pass 1  IDiag  1:
 RMSU=  2.87D-08    CP:  9.32D-02  2.04D+00  8.50D-01  8.10D-01  8.15D-01
                    CP:  7.24D-01  7.27D-01  7.51D-01  7.57D-01  8.00D-01
 E= -6142.01301304297     Delta-E=       -0.000000004118 Rises=F Damp=F
 DIIS: error= 2.62D-07 at cycle  11 NSaved=  11.
 NSaved=11 IEnMin=11 EnMin= -6142.01301304297     IErMin=11 ErrMin= 2.62D-07
 ErrMax= 2.62D-07  0.00D+00 EMaxC= 1.00D-01 BMatC= 8.74D-10 BMatP= 5.65D-09
 IDIUse=1 WtCom= 1.00D+00 WtEn= 0.00D+00
 Coeff-Com:  0.939D-04-0.186D-03-0.238D-03-0.346D-03-0.238D-03 0.348D-03
 Coeff-Com:  0.758D-02 0.386D-01 0.133D+00 0.329D+00 0.492D+00
 Coeff:      0.939D-04-0.186D-03-0.238D-03-0.346D-03-0.238D-03 0.348D-03
 Coeff:      0.758D-02 0.386D-01 0.133D+00 0.329D+00 0.492D+00
 Gap=     0.103 Goal=   None    Shift=    0.000
 RMSDP=1.74D-08 MaxDP=8.22D-06 DE=-4.12D-09 OVMax= 4.74D-06

 Cycle  12  Pass 1  IDiag  1:
 RMSU=  1.00D-08    CP:  9.32D-02  2.04D+00  8.50D-01  8.10D-01  8.14D-01
                    CP:  7.24D-01  7.28D-01  7.49D-01  7.87D-01  8.11D-01
                    CP:  6.97D-01
 E= -6142.01301304353     Delta-E=       -0.000000000557 Rises=F Damp=F
 DIIS: error= 7.64D-08 at cycle  12 NSaved=  12.
 NSaved=12 IEnMin=12 EnMin= -6142.01301304353     IErMin=12 ErrMin= 7.64D-08
 ErrMax= 7.64D-08  0.00D+00 EMaxC= 1.00D-01 BMatC= 9.91D-11 BMatP= 8.74D-10
 IDIUse=1 WtCom= 1.00D+00 WtEn= 0.00D+00
 Coeff-Com:  0.174D-04-0.344D-04-0.619D-04-0.203D-03-0.402D-03-0.110D-02
 Coeff-Com: -0.886D-03 0.579D-02 0.348D-01 0.120D+00 0.290D+00 0.552D+00
 Coeff:      0.174D-04-0.344D-04-0.619D-04-0.203D-03-0.402D-03-0.110D-02
 Coeff:     -0.886D-03 0.579D-02 0.348D-01 0.120D+00 0.290D+00 0.552D+00
 Gap=     0.103 Goal=   None    Shift=    0.000
 RMSDP=5.94D-09 MaxDP=2.33D-06 DE=-5.57D-10 OVMax= 1.74D-06

 Cycle  13  Pass 1  IDiag  1:
 RMSU=  4.11D-09    CP:  9.32D-02  2.04D+00  8.50D-01  8.10D-01  8.15D-01
                    CP:  7.24D-01  7.28D-01  7.52D-01  7.86D-01  8.25D-01
                    CP:  7.39D-01  7.88D-01
 E= -6142.01301304363     Delta-E=       -0.000000000102 Rises=F Damp=F
 DIIS: error= 2.76D-08 at cycle  13 NSaved=  13.
 NSaved=13 IEnMin=13 EnMin= -6142.01301304363     IErMin=13 ErrMin= 2.76D-08
 ErrMax= 2.76D-08  0.00D+00 EMaxC= 1.00D-01 BMatC= 1.79D-11 BMatP= 9.91D-11
 IDIUse=1 WtCom= 1.00D+00 WtEn= 0.00D+00
 Coeff-Com: -0.391D-05 0.780D-05 0.153D-06-0.786D-04-0.216D-03-0.789D-03
 Coeff-Com: -0.183D-02-0.273D-02 0.882D-04 0.213D-01 0.989D-01 0.348D+00
 Coeff-Com:  0.538D+00
 Coeff:     -0.391D-05 0.780D-05 0.153D-06-0.786D-04-0.216D-03-0.789D-03
 Coeff:     -0.183D-02-0.273D-02 0.882D-04 0.213D-01 0.989D-01 0.348D+00
 Coeff:      0.538D+00
 Gap=     0.103 Goal=   None    Shift=    0.000
 RMSDP=2.33D-09 MaxDP=7.44D-07 DE=-1.02D-10 OVMax= 6.13D-07

 Error on total polarization charges =  0.09640
 SCF Done:  E(RB3LYP) =  -6142.01301304     A.U. after   13 cycles
            NFock= 13  Conv=0.23D-08     -V/T= 2.0355
 KE= 5.931186163110D+03 PE=-6.911149083997D+04 EE= 2.964252043676D+04
 SMD-CDS (non-electrostatic) energy       (kcal/mol) =     -19.24
 (included in total energy above)
 Leave Link  502 at Sun Nov 17 18:48:25 2024, MaxMem=  7247757312 cpu:          185977.5 elap:            3906.9
 (Enter /ihome/crc/install/gaussian/c01/avx2/tar/g16/l601.exe)
 Copying SCF densities to generalized density rwf, IOpCl= 0 IROHF=0.
 Hyperfine terms turned off by default for NAtoms > 100.

 **********************************************************************

            Population analysis using the SCF Density.

 **********************************************************************

 Alpha  occ. eigenvalues --  -89.02881 -89.02615 -24.71911 -24.71841 -24.71548
 Alpha  occ. eigenvalues --  -24.71417 -24.71410 -24.71351 -24.69943 -24.69720
 Alpha  occ. eigenvalues --  -19.15664 -19.13618 -19.13229 -19.10153 -19.09232
 Alpha  occ. eigenvalues --  -19.09113 -19.08918 -19.08800 -14.39295 -14.34266
 Alpha  occ. eigenvalues --  -14.32816 -14.31651 -14.29745 -14.28245 -10.42585
 Alpha  occ. eigenvalues --  -10.42464 -10.28717 -10.28290 -10.26755 -10.26718
 Alpha  occ. eigenvalues --  -10.26574 -10.26405 -10.25346 -10.22874 -10.22292
 Alpha  occ. eigenvalues --  -10.22223 -10.21913 -10.21740 -10.21734 -10.21600
 Alpha  occ. eigenvalues --  -10.21572 -10.21533 -10.21261 -10.21244 -10.21189
 Alpha  occ. eigenvalues --  -10.21162 -10.20674 -10.20584 -10.20529 -10.20483
 Alpha  occ. eigenvalues --  -10.20454 -10.20372 -10.20362 -10.20224 -10.20194
 Alpha  occ. eigenvalues --  -10.20075 -10.20020 -10.19754 -10.19513 -10.19464
 Alpha  occ. eigenvalues --  -10.19229 -10.19221 -10.19195 -10.19181 -10.19029
 Alpha  occ. eigenvalues --  -10.19025 -10.18953 -10.18874 -10.18832 -10.18730
 Alpha  occ. eigenvalues --  -10.18663 -10.18661 -10.18641 -10.18624 -10.18599
 Alpha  occ. eigenvalues --  -10.18574 -10.18560 -10.18542 -10.18488 -10.18471
 Alpha  occ. eigenvalues --  -10.18105 -10.18025 -10.18002 -10.17975 -10.17896
 Alpha  occ. eigenvalues --  -10.17857 -10.17853 -10.17821 -10.17821 -10.17802
 Alpha  occ. eigenvalues --  -10.17789 -10.17776 -10.17753 -10.17752 -10.17710
 Alpha  occ. eigenvalues --  -10.17705 -10.17705 -10.17650 -10.17642 -10.17614
 Alpha  occ. eigenvalues --  -10.17596 -10.17583 -10.17495 -10.17424 -10.17382
 Alpha  occ. eigenvalues --  -10.17348 -10.17201 -10.16652 -10.15697 -10.15329
 Alpha  occ. eigenvalues --   -8.07399  -8.07164  -6.84098  -6.03714  -6.03638
 Alpha  occ. eigenvalues --   -6.03607  -6.03488  -6.03394  -6.03369  -4.86620
 Alpha  occ. eigenvalues --   -4.85327  -4.85313  -1.91397  -1.90997  -1.90979
 Alpha  occ. eigenvalues --   -1.89879  -1.89878  -1.32564  -1.32498  -1.23961
 Alpha  occ. eigenvalues --   -1.23867  -1.23547  -1.23479  -1.23163  -1.23083
 Alpha  occ. eigenvalues --   -1.11073  -1.09540  -1.08766  -1.05807  -1.05162
 Alpha  occ. eigenvalues --   -1.04363  -1.01529  -0.98687  -0.98620  -0.98461
 Alpha  occ. eigenvalues --   -0.95384  -0.93092  -0.92684  -0.90109  -0.88640
 Alpha  occ. eigenvalues --   -0.88276  -0.88225  -0.88035  -0.87917  -0.87786
 Alpha  occ. eigenvalues --   -0.85494  -0.85397  -0.84068  -0.83948  -0.83761
 Alpha  occ. eigenvalues --   -0.81825  -0.81451  -0.80810  -0.79697  -0.79488
 Alpha  occ. eigenvalues --   -0.79334  -0.78840  -0.78531  -0.78388  -0.78236
 Alpha  occ. eigenvalues --   -0.78101  -0.77963  -0.77938  -0.76883  -0.76373
 Alpha  occ. eigenvalues --   -0.76254  -0.75891  -0.74943  -0.74646  -0.74622
 Alpha  occ. eigenvalues --   -0.74574  -0.74168  -0.73942  -0.73000  -0.72900
 Alpha  occ. eigenvalues --   -0.72385  -0.71797  -0.70952  -0.70748  -0.70598
 Alpha  occ. eigenvalues --   -0.70418  -0.69663  -0.68812  -0.68416  -0.67414
 Alpha  occ. eigenvalues --   -0.67150  -0.66666  -0.65658  -0.64983  -0.64905
 Alpha  occ. eigenvalues --   -0.64738  -0.64625  -0.64038  -0.63697  -0.63554
 Alpha  occ. eigenvalues --   -0.63464  -0.62908  -0.62757  -0.62579  -0.61902
 Alpha  occ. eigenvalues --   -0.61842  -0.61478  -0.60865  -0.60599  -0.60204
 Alpha  occ. eigenvalues --   -0.60131  -0.60065  -0.59804  -0.59752  -0.59702
 Alpha  occ. eigenvalues --   -0.59649  -0.58825  -0.58560  -0.58133  -0.58006
 Alpha  occ. eigenvalues --   -0.57801  -0.57554  -0.57474  -0.56622  -0.56507
 Alpha  occ. eigenvalues --   -0.55177  -0.54883  -0.54719  -0.54414  -0.54267
 Alpha  occ. eigenvalues --   -0.53322  -0.53130  -0.52995  -0.52456  -0.51929
 Alpha  occ. eigenvalues --   -0.51788  -0.51389  -0.51292  -0.51119  -0.51091
 Alpha  occ. eigenvalues --   -0.50989  -0.50496  -0.50316  -0.49980  -0.49824
 Alpha  occ. eigenvalues --   -0.49743  -0.49257  -0.49153  -0.48995  -0.48781
 Alpha  occ. eigenvalues --   -0.48412  -0.48345  -0.48266  -0.48250  -0.48193
 Alpha  occ. eigenvalues --   -0.48112  -0.47991  -0.47637  -0.47582  -0.47541
 Alpha  occ. eigenvalues --   -0.47215  -0.47157  -0.47119  -0.47060  -0.46998
 Alpha  occ. eigenvalues --   -0.46810  -0.46371  -0.46309  -0.46191  -0.46024
 Alpha  occ. eigenvalues --   -0.45871  -0.45829  -0.45727  -0.45419  -0.45329
 Alpha  occ. eigenvalues --   -0.45300  -0.45226  -0.45174  -0.44824  -0.44775
 Alpha  occ. eigenvalues --   -0.44719  -0.44674  -0.44465  -0.44372  -0.44102
 Alpha  occ. eigenvalues --   -0.44013  -0.43858  -0.43784  -0.43597  -0.43015
 Alpha  occ. eigenvalues --   -0.42888  -0.42855  -0.42756  -0.42747  -0.42706
 Alpha  occ. eigenvalues --   -0.42664  -0.42602  -0.42287  -0.42106  -0.42086
 Alpha  occ. eigenvalues --   -0.42022  -0.41872  -0.41786  -0.41750  -0.41458
 Alpha  occ. eigenvalues --   -0.41086  -0.41070  -0.41017  -0.40726  -0.40599
 Alpha  occ. eigenvalues --   -0.40538  -0.40347  -0.40321  -0.40257  -0.40047
 Alpha  occ. eigenvalues --   -0.39869  -0.39659  -0.39647  -0.39480  -0.39182
 Alpha  occ. eigenvalues --   -0.39014  -0.38906  -0.38841  -0.38547  -0.38182
 Alpha  occ. eigenvalues --   -0.38014  -0.37943  -0.37704  -0.37628  -0.37530
 Alpha  occ. eigenvalues --   -0.37392  -0.37280  -0.36983  -0.36821  -0.36779
 Alpha  occ. eigenvalues --   -0.36749  -0.36555  -0.36375  -0.36279  -0.36192
 Alpha  occ. eigenvalues --   -0.36018  -0.35998  -0.35875  -0.35865  -0.35667
 Alpha  occ. eigenvalues --   -0.35586  -0.35508  -0.35241  -0.35000  -0.34765
 Alpha  occ. eigenvalues --   -0.34503  -0.34465  -0.34383  -0.34250  -0.34063
 Alpha  occ. eigenvalues --   -0.34017  -0.33522  -0.33369  -0.32613  -0.32306
 Alpha  occ. eigenvalues --   -0.31973  -0.31776  -0.31632  -0.31297  -0.31156
 Alpha  occ. eigenvalues --   -0.30892  -0.30723  -0.30065  -0.30046  -0.29875
 Alpha  occ. eigenvalues --   -0.29310  -0.28930  -0.28523  -0.28320  -0.28038
 Alpha  occ. eigenvalues --   -0.27981  -0.27902  -0.27751  -0.27561  -0.27210
 Alpha  occ. eigenvalues --   -0.27112  -0.27018  -0.26992  -0.26914  -0.26652
 Alpha  occ. eigenvalues --   -0.26345  -0.26228  -0.26000  -0.25887  -0.25625
 Alpha  occ. eigenvalues --   -0.25492  -0.25473  -0.25383  -0.25154  -0.24824
 Alpha  occ. eigenvalues --   -0.24639  -0.23900  -0.23690  -0.23431  -0.22992
 Alpha  occ. eigenvalues --   -0.21676  -0.21204  -0.21032
 Alpha virt. eigenvalues --   -0.10760  -0.07100  -0.06987  -0.05638  -0.05288
 Alpha virt. eigenvalues --   -0.05163  -0.04883  -0.03782  -0.03321  -0.03189
 Alpha virt. eigenvalues --   -0.02968  -0.02688  -0.02240  -0.02103  -0.01800
 Alpha virt. eigenvalues --   -0.01535  -0.01171  -0.01085   0.00042   0.00149
 Alpha virt. eigenvalues --    0.00542   0.00617   0.00982   0.01332   0.02974
 Alpha virt. eigenvalues --    0.03287   0.03700   0.03764   0.04221   0.04504
 Alpha virt. eigenvalues --    0.04519   0.04587   0.04921   0.05243   0.05405
 Alpha virt. eigenvalues --    0.05486   0.05677   0.05788   0.05938   0.06100
 Alpha virt. eigenvalues --    0.06156   0.06440   0.06486   0.06791   0.06876
 Alpha virt. eigenvalues --    0.07261   0.07424   0.07589   0.07636   0.07902
 Alpha virt. eigenvalues --    0.08019   0.08217   0.08299   0.08578   0.08626
 Alpha virt. eigenvalues --    0.08903   0.08915   0.09032   0.09181   0.09321
 Alpha virt. eigenvalues --    0.09427   0.09497   0.09588   0.09621   0.09836
 Alpha virt. eigenvalues --    0.09962   0.10131   0.10241   0.10264   0.10419
 Alpha virt. eigenvalues --    0.10578   0.10709   0.10907   0.10958   0.10985
 Alpha virt. eigenvalues --    0.11074   0.11237   0.11469   0.11573   0.11597
 Alpha virt. eigenvalues --    0.11681   0.11847   0.11930   0.12031   0.12142
 Alpha virt. eigenvalues --    0.12308   0.12386   0.12497   0.12588   0.12667
 Alpha virt. eigenvalues --    0.12856   0.12989   0.13051   0.13293   0.13346
 Alpha virt. eigenvalues --    0.13403   0.13498   0.13655   0.13707   0.13861
 Alpha virt. eigenvalues --    0.13898   0.13999   0.14137   0.14247   0.14304
 Alpha virt. eigenvalues --    0.14429   0.14527   0.14667   0.14851   0.14941
 Alpha virt. eigenvalues --    0.15020   0.15164   0.15196   0.15262   0.15556
 Alpha virt. eigenvalues --    0.15587   0.15752   0.15825   0.15943   0.16028
 Alpha virt. eigenvalues --    0.16193   0.16331   0.16377   0.16617   0.16666
 Alpha virt. eigenvalues --    0.16807   0.16875   0.16913   0.17167   0.17195
 Alpha virt. eigenvalues --    0.17418   0.17571   0.17682   0.17770   0.17963
 Alpha virt. eigenvalues --    0.18170   0.18347   0.18471   0.18520   0.18636
 Alpha virt. eigenvalues --    0.18734   0.18937   0.18946   0.19185   0.19260
 Alpha virt. eigenvalues --    0.19269   0.19499   0.19530   0.19646   0.19866
 Alpha virt. eigenvalues --    0.19909   0.20098   0.20115   0.20354   0.20393
 Alpha virt. eigenvalues --    0.20558   0.20675   0.20707   0.20875   0.20924
 Alpha virt. eigenvalues --    0.21080   0.21147   0.21248   0.21311   0.21443
 Alpha virt. eigenvalues --    0.21579   0.21627   0.21706   0.21854   0.21872
 Alpha virt. eigenvalues --    0.21892   0.22017   0.22066   0.22145   0.22259
 Alpha virt. eigenvalues --    0.22439   0.22560   0.22691   0.22779   0.22963
 Alpha virt. eigenvalues --    0.23065   0.23182   0.23265   0.23324   0.23486
 Alpha virt. eigenvalues --    0.23690   0.23725   0.23793   0.23933   0.24089
 Alpha virt. eigenvalues --    0.24145   0.24193   0.24269   0.24327   0.24520
 Alpha virt. eigenvalues --    0.24634   0.24812   0.24897   0.25028   0.25076
 Alpha virt. eigenvalues --    0.25152   0.25364   0.25417   0.25659   0.25695
 Alpha virt. eigenvalues --    0.25740   0.25953   0.26068   0.26166   0.26249
 Alpha virt. eigenvalues --    0.26300   0.26396   0.26544   0.26794   0.26871
 Alpha virt. eigenvalues --    0.26993   0.27045   0.27075   0.27237   0.27375
 Alpha virt. eigenvalues --    0.27548   0.27608   0.27699   0.27869   0.27950
 Alpha virt. eigenvalues --    0.28042   0.28086   0.28254   0.28353   0.28409
 Alpha virt. eigenvalues --    0.28636   0.28731   0.28755   0.28900   0.28954
 Alpha virt. eigenvalues --    0.28998   0.29198   0.29374   0.29461   0.29497
 Alpha virt. eigenvalues --    0.29582   0.29650   0.29776   0.29848   0.30024
 Alpha virt. eigenvalues --    0.30140   0.30163   0.30338   0.30421   0.30507
 Alpha virt. eigenvalues --    0.30616   0.30762   0.30850   0.31018   0.31097
 Alpha virt. eigenvalues --    0.31154   0.31255   0.31480   0.31556   0.31708
 Alpha virt. eigenvalues --    0.31754   0.31886   0.31908   0.32016   0.32176
 Alpha virt. eigenvalues --    0.32257   0.32377   0.32443   0.32522   0.32622
 Alpha virt. eigenvalues --    0.32763   0.32785   0.32908   0.33024   0.33132
 Alpha virt. eigenvalues --    0.33221   0.33356   0.33409   0.33540   0.33555
 Alpha virt. eigenvalues --    0.33719   0.33883   0.33902   0.34116   0.34355
 Alpha virt. eigenvalues --    0.34398   0.34432   0.34590   0.34626   0.34794
 Alpha virt. eigenvalues --    0.34879   0.34979   0.35116   0.35351   0.35460
 Alpha virt. eigenvalues --    0.35554   0.35650   0.35737   0.35833   0.35983
 Alpha virt. eigenvalues --    0.36019   0.36119   0.36319   0.36359   0.36464
 Alpha virt. eigenvalues --    0.36566   0.36723   0.36847   0.36926   0.37061
 Alpha virt. eigenvalues --    0.37126   0.37249   0.37275   0.37370   0.37508
 Alpha virt. eigenvalues --    0.37674   0.37734   0.37878   0.37997   0.38038
 Alpha virt. eigenvalues --    0.38226   0.38326   0.38397   0.38448   0.38513
 Alpha virt. eigenvalues --    0.38569   0.38653   0.38701   0.38952   0.38972
 Alpha virt. eigenvalues --    0.39102   0.39188   0.39244   0.39388   0.39456
 Alpha virt. eigenvalues --    0.39555   0.39720   0.39728   0.39827   0.39939
 Alpha virt. eigenvalues --    0.40062   0.40152   0.40305   0.40383   0.40500
 Alpha virt. eigenvalues --    0.40563   0.40637   0.40661   0.40880   0.40943
 Alpha virt. eigenvalues --    0.41068   0.41156   0.41251   0.41357   0.41443
 Alpha virt. eigenvalues --    0.41570   0.41710   0.41774   0.42019   0.42051
 Alpha virt. eigenvalues --    0.42109   0.42179   0.42350   0.42459   0.42473
 Alpha virt. eigenvalues --    0.42562   0.42740   0.42849   0.42886   0.42939
 Alpha virt. eigenvalues --    0.43081   0.43195   0.43226   0.43344   0.43394
 Alpha virt. eigenvalues --    0.43535   0.43622   0.43652   0.43742   0.43889
 Alpha virt. eigenvalues --    0.43896   0.44096   0.44141   0.44291   0.44374
 Alpha virt. eigenvalues --    0.44431   0.44457   0.44592   0.44637   0.44787
 Alpha virt. eigenvalues --    0.44813   0.44978   0.45081   0.45246   0.45370
 Alpha virt. eigenvalues --    0.45422   0.45507   0.45658   0.45725   0.45861
 Alpha virt. eigenvalues --    0.45942   0.46062   0.46140   0.46267   0.46418
 Alpha virt. eigenvalues --    0.46482   0.46552   0.46699   0.46798   0.46912
 Alpha virt. eigenvalues --    0.47006   0.47142   0.47226   0.47270   0.47486
 Alpha virt. eigenvalues --    0.47533   0.47792   0.47840   0.47960   0.48119
 Alpha virt. eigenvalues --    0.48257   0.48306   0.48416   0.48587   0.48698
 Alpha virt. eigenvalues --    0.48794   0.48811   0.48890   0.48984   0.49021
 Alpha virt. eigenvalues --    0.49168   0.49311   0.49428   0.49496   0.49613
 Alpha virt. eigenvalues --    0.49743   0.49808   0.49909   0.50049   0.50104
 Alpha virt. eigenvalues --    0.50185   0.50335   0.50476   0.50551   0.50631
 Alpha virt. eigenvalues --    0.50739   0.50848   0.50879   0.50991   0.51102
 Alpha virt. eigenvalues --    0.51155   0.51276   0.51375   0.51420   0.51569
[...]
 Alpha virt. eigenvalues --    6.05933   6.06085   6.06566   6.07962   6.08091
 Alpha virt. eigenvalues --    6.09137   6.10083   6.10765   6.11060   6.11435
 Alpha virt. eigenvalues --    6.11548   6.12522   6.12987   6.14879   6.15887
 Alpha virt. eigenvalues --    6.16827   6.18083   6.20463   6.21320   6.21394
 Alpha virt. eigenvalues --    6.22023   6.22612   6.23457   6.25464   6.26053
 Alpha virt. eigenvalues --    6.26404   6.27398   6.28694   6.35755   6.36588
 Alpha virt. eigenvalues --    6.42691   6.43196   6.43268   6.46625   6.47286
 Alpha virt. eigenvalues --    6.47550   6.48256   6.49075   6.50790   6.52173
 Alpha virt. eigenvalues --    6.53524   6.54685   6.55512   6.56964   6.57476
 Alpha virt. eigenvalues --    6.58073   6.60800   6.61479   6.62987   6.64985
 Alpha virt. eigenvalues --    6.68177   6.68444   6.69542   6.71160   6.74003
 Alpha virt. eigenvalues --    6.75957   6.76697   6.77038   6.77641   6.78498
 Alpha virt. eigenvalues --    6.78878   6.78919   6.79403   6.81330   6.82480
 Alpha virt. eigenvalues --    6.82484   6.82567   6.83161   6.83412   6.83604
 Alpha virt. eigenvalues --    6.83914   6.84106   6.84570   6.84609   6.85186
 Alpha virt. eigenvalues --    6.85221   6.85892   6.85931   6.86254   6.86446
 Alpha virt. eigenvalues --    6.86716   6.87058   6.87174   6.87724   6.87845
 Alpha virt. eigenvalues --    6.88302   6.88556   6.88794   6.90199   6.90563
 Alpha virt. eigenvalues --    6.91960   6.92500   6.92875   6.93984   6.96708
 Alpha virt. eigenvalues --    6.97248   6.97823   6.98154   6.98806   6.99261
 Alpha virt. eigenvalues --    6.99823   7.01467   7.01676   7.01885   7.02176
 Alpha virt. eigenvalues --    7.02766   7.04673   7.05691   7.06710   7.08802
 Alpha virt. eigenvalues --    7.09248   7.09625   7.11922   7.12268   7.12803
 Alpha virt. eigenvalues --    7.13120   7.13387   7.13436   7.17972   7.20416
 Alpha virt. eigenvalues --    7.20810   7.23338   7.24346   7.27081   7.29072
 Alpha virt. eigenvalues --    7.34827   7.36501   7.36546   7.37157   7.37433
 Alpha virt. eigenvalues --    7.38562   7.40906   7.42119   7.43660   7.43928
 Alpha virt. eigenvalues --    7.47840   7.48087   7.48375   7.48643   7.55185
 Alpha virt. eigenvalues --    7.57843   7.58282   7.59064   7.59411   7.62681
 Alpha virt. eigenvalues --    7.62741   7.65344   7.66461   7.69681   7.88153
 Alpha virt. eigenvalues --    7.89893   7.97197   8.05971   8.28548   8.29991
 Alpha virt. eigenvalues --    8.30937   8.31449   8.31684   8.32711   8.41750
 Alpha virt. eigenvalues --    8.43137   8.45899   8.47187   8.50132   8.50902
 Alpha virt. eigenvalues --    8.57895   8.58872   8.60535   8.62530   8.67782
 Alpha virt. eigenvalues --    8.68296   8.75487   8.76017   8.78728   8.79015
 Alpha virt. eigenvalues --    8.81255   8.81662   8.89425   8.90810   8.95469
 Alpha virt. eigenvalues --    8.96324   8.99390   9.01499   9.03568   9.07053
 Alpha virt. eigenvalues --    9.07537   9.11181   9.11411   9.13159   9.14399
 Alpha virt. eigenvalues --    9.17460   9.19408   9.26771   9.53876   9.56489
 Alpha virt. eigenvalues --    9.75147   9.82426  10.16653  10.18750  22.56358
 Alpha virt. eigenvalues --   22.65412  22.69635  22.73423  22.82725  22.84593
 Alpha virt. eigenvalues --   22.85640  22.87100  22.88008  22.89688  22.90472
 Alpha virt. eigenvalues --   22.93709  22.97515  23.01324  23.03250  23.03689
 Alpha virt. eigenvalues --   23.05355  23.05612  23.07087  23.07645  23.07805
 Alpha virt. eigenvalues --   23.10078  23.11906  23.12044  23.13257  23.13491
 Alpha virt. eigenvalues --   23.14158  23.15498  23.15599  23.16499  23.17115
 Alpha virt. eigenvalues --   23.17773  23.18661  23.18818  23.19054  23.19518
 Alpha virt. eigenvalues --   23.21708  23.22819  23.23401  23.24108  23.24749
 Alpha virt. eigenvalues --   23.25780  23.26333  23.26787  23.27119  23.28006
 Alpha virt. eigenvalues --   23.28739  23.29713  23.30697  23.30718  23.31605
 Alpha virt. eigenvalues --   23.32075  23.32773  23.33520  23.33662  23.35483
 Alpha virt. eigenvalues --   23.35926  23.38291  23.39791  23.40288  23.42089
 Alpha virt. eigenvalues --   23.43794  23.44780  23.45128  23.45900  23.46786
 Alpha virt. eigenvalues --   23.48587  23.53324  23.55959  23.56922  23.58695
 Alpha virt. eigenvalues --   23.60927  23.62353  23.63422  23.78514  23.80945
 Alpha virt. eigenvalues --   23.81134  23.81543  23.90973  23.92478  24.13204
 Alpha virt. eigenvalues --   24.13631  24.14135  24.17019  24.22716  24.27885
 Alpha virt. eigenvalues --   24.39634  24.41842  32.51295  32.63896  32.91821
 Alpha virt. eigenvalues --   33.02154  33.29208  33.32848  34.63654  34.67694
 Alpha virt. eigenvalues --   34.93635  42.95772  43.93571  44.04540  44.15576
 Alpha virt. eigenvalues --   44.21516  44.27952  44.28912  44.31820  44.41147
 Alpha virt. eigenvalues --   57.15246  57.19988  57.26902  57.44279  57.51975
 Alpha virt. eigenvalues --   57.60928  57.62725  57.79385 117.86435
          Condensed to atoms (all electrons):
 Mulliken charges:
               1
     1  C    0.133148
     2  C    0.103378
     3  C   -0.051369
     4  C   -0.174571
     5  C    0.292803
     6  N   -0.284787
     7  H    0.197340
     8  C   -0.186336
     9  C    0.117788
    10  C   -0.132195
    11  C   -0.151327
    12  C   -0.125566
    13  H    0.145819
    14  H    0.150262
    15  H    0.148695
    16  C    0.363456
    17  C    0.092880
    18  C   -0.255381
    19  C   -0.218647
    20  C   -0.150619
    21  H    0.153996
    22  C   -0.120947
    23  H    0.151401
    24  C   -0.190997
    25  H    0.148937
    26  H    0.144522
    27  H    0.151104
    28  F   -0.226245
    29  C   -0.231751
    30  H    0.117859
    31  H    0.119430
    32  H    0.069965
    33  C   -0.054278
    34  C   -0.038781
    35  C    0.016976
    36  H    0.096025
    37  H    0.122185
    38  C   -0.016976
    39  H    0.116780
    40  H    0.111449
    41  H    0.079598
    42  H    0.109919
    43  H    0.093900
    44  H    0.104367
    45  N    0.037019
    46  O   -0.346431
    47  I   -0.045581
    48  H    0.194627
    49  C   -0.143910
    50  C   -0.182234
    51  C   -0.067397
    52  C   -0.045117
    53  C   -0.145205
    54  C   -0.135561
    55  H    0.153187
    56  H    0.158340
    57  C    0.072317
    58  C   -0.084672
    59  H    0.145331
    60  H    0.151952
    61  C   -0.136146
    62  C   -0.088431
    63  H    0.144718
    64  C    0.144933
    65  C   -0.099524
    66  C   -0.066699
    67  C   -0.093222
    68  C   -0.022145
    69  C   -0.186998
    70  C   -0.131152
    71  C   -0.139552
    72  C   -0.139686
    73  H    0.163314
    74  H    0.143041
    75  C   -0.142484
    76  H    0.146077
    77  H    0.154011
    78  H    0.152631
    79  S    0.927918
    80  O   -0.521453
    81  O   -0.574111
    82  S    0.846686
    83  O   -0.497958
    84  O   -0.518837
    85  N   -0.484921
    86  C    0.121177
    87  C    0.241486
    88  C    0.135078
    89  C    0.152221
    90  C   -0.147958
    91  C   -0.175450
    92  C   -0.161216
    93  C   -0.117423
    94  C   -0.163649
    95  H    0.167666
    96  C   -0.104020
    97  H    0.161646
    98  H    0.154214
    99  H    0.154311
   100  C   -0.071034
   101  C   -0.196705
   102  C   -0.208322
   103  C   -0.124893
   104  H    0.153384
   105  C   -0.074237
   106  C   -0.178958
   107  H    0.162616
   108  H    0.158112
   109  H    0.160658
   110  C    0.562779
   111  F   -0.188823
   112  F   -0.188124
   113  F   -0.191556
   114  C    0.610693
   115  F   -0.193221
   116  F   -0.190191
   117  F   -0.201484
   118  N   -0.384438
   119  C    0.264762
   120  C   -0.129009
   121  C   -0.104598
   122  C    0.301353
   123  O   -0.403933
   124  O   -0.346161
   125  H    0.106621
   126  H    0.098846
   127  H    0.093713
   128  H    0.092043
   129  C    0.331906
   130  C   -0.340549
   131  C    0.061088
   132  C   -0.204305
   133  C    0.134362
   134  N   -0.313855
   135  H    0.134426
   136  C   -0.114164
   137  C    0.152825
   138  C   -0.158370
   139  C   -0.236816
   140  C   -0.158786
   141  H    0.149208
   142  H    0.154688
   143  H    0.155619
   144  C    0.342310
   145  C    0.123448
   146  C   -0.227701
   147  C   -0.260774
   148  C   -0.151873
   149  H    0.139723
   150  C   -0.140803
   151  H    0.162081
   152  C   -0.173126
   153  H    0.149731
   154  H    0.151037
   155  H    0.151197
   156  F   -0.252731
   157  C   -0.262747
   158  H    0.091613
   159  H    0.106635
   160  H    0.083034
   161  C   -0.044156
   162  C   -0.025988
   163  C    0.017790
   164  H    0.092226
   165  H    0.066670
   166  C   -0.025489
   167  H    0.100065
   168  H    0.078805
   169  H    0.065152
   170  H    0.096355
   171  H    0.073144
   172  H    0.097112
   173  N   -0.085500
   174  O   -0.339736
   175  H    0.169120
   176  H    0.338236
 Sum of Mulliken charges =  -0.00000
 Mulliken charges with hydrogens summed into heavy atoms:
               1
     1  C    0.133148
     2  C    0.298005
     3  C   -0.051369
     4  C    0.022768
     5  C    0.292803
     6  N   -0.284787
     8  C   -0.186336
     9  C    0.117788
    10  C    0.013624
    11  C   -0.002632
    12  C    0.024696
    16  C    0.363456
    17  C    0.092880
    18  C   -0.101385
    19  C   -0.067245
    20  C   -0.001682
    22  C    0.023575
    24  C   -0.039893
    28  F   -0.226245
    29  C    0.075504
    33  C    0.163932
    34  C    0.189449
    35  C    0.206493
    38  C    0.181290
    45  N    0.037019
    46  O   -0.346431
    47  I   -0.045581
    49  C    0.009277
    50  C   -0.023895
    51  C   -0.067397
    52  C   -0.045117
    53  C    0.000126
    54  C    0.016391
    57  C    0.072317
    58  C    0.060046
    61  C   -0.136146
    62  C   -0.088431
    64  C    0.144933
    65  C   -0.099524
    66  C   -0.066699
    67  C   -0.093222
    68  C   -0.022145
    69  C   -0.023684
    70  C    0.011889
    71  C    0.006525
    72  C    0.014325
    75  C    0.010147
    79  S    0.927918
    80  O   -0.521453
    81  O   -0.574111
    82  S    0.846686
    83  O   -0.497958
    84  O   -0.518837
    85  N   -0.484921
    86  C    0.121177
    87  C    0.241486
    88  C    0.135078
    89  C    0.152221
    90  C   -0.147958
    91  C   -0.175450
    92  C    0.006450
    93  C    0.044223
    94  C   -0.009435
    96  C    0.050291
   100  C   -0.071034
   101  C   -0.043321
   102  C   -0.208322
   103  C    0.037723
   105  C    0.083874
   106  C   -0.018300
   110  C    0.562779
   111  F   -0.188823
   112  F   -0.188124
   113  F   -0.191556
   114  C    0.610693
   115  F   -0.193221
   116  F   -0.190191
   117  F   -0.201484
   118  N   -0.384438
   119  C    0.264762
   120  C    0.076459
   121  C    0.081158
   122  C    0.301353
   123  O   -0.403933
   124  O   -0.007925
   129  C    0.331906
   130  C   -0.171429
   131  C    0.061088
   132  C   -0.069879
   133  C    0.134362
   134  N   -0.313855
   136  C   -0.114164
   137  C    0.152825
   138  C   -0.009162
   139  C   -0.081196
   140  C   -0.004098
   144  C    0.342310
   145  C    0.123448
   146  C   -0.087979
   147  C   -0.098693
   148  C   -0.002142
   150  C    0.010235
   152  C   -0.021929
   156  F   -0.252731
   157  C    0.018535
   161  C    0.114740
   162  C    0.152883
   163  C    0.179296
   166  C    0.144767
   173  N   -0.085500
   174  O   -0.339736
 Electronic spatial extent (au):  <R**2>=         146947.7998
 Charge=             -0.0000 electrons
 Dipole moment (field-independent basis, Debye):
    X=              7.8222    Y=            -13.6547    Z=              7.2115  Tot=             17.3102
 Quadrupole moment (field-independent basis, Debye-Ang):
   XX=           -640.0966   YY=           -507.2307   ZZ=           -655.1197
   XY=            -21.2326   XZ=            -19.7672   YZ=             -5.6699
 Traceless Quadrupole moment (field-independent basis, Debye-Ang):
   XX=            -39.2810   YY=             93.5849   ZZ=            -54.3040
   XY=            -21.2326   XZ=            -19.7672   YZ=             -5.6699
 Octapole moment (field-independent basis, Debye-Ang**2):
  XXX=            875.0040  YYY=           4847.1447  ZZZ=           -948.4368  XYY=             31.9753
  XXY=           2273.8923  XXZ=           -184.0838  XZZ=             69.0946  YZZ=           2086.9986
  YYZ=           -459.1997  XYZ=             39.5141
 Hexadecapole moment (field-independent basis, Debye-Ang**3):
 XXXX=         -51021.4949 YYYY=        -101488.8780 ZZZZ=         -27069.3408 XXXY=          -7747.4650
 XXXZ=           3794.9302 YYYX=          -6418.9875 YYYZ=          12688.2655 ZZZX=           2520.8124
 ZZZY=          12614.8364 XXYY=         -28516.1842 XXZZ=         -13138.0030 YYZZ=         -23562.0759
 XXYZ=           3902.8568 YYXZ=            953.0712 ZZXY=          -1322.7843
 N-N= 2.739577122705D+04 E-N=-6.911149082425D+04  KE= 5.931186163110D+03
 Leave Link  601 at Sun Nov 17 18:48:28 2024, MaxMem=  7247757312 cpu:              56.9 elap:               2.1
 (Enter /ihome/crc/install/gaussian/c01/avx2/tar/g16/l9999.exe)
 Unable to Open any file for archive entry.
 1\1\GINC-SMP-N252\SP\RB3LYP\def2TZVPP\C86H65F8I1N6O8S2\BIM12\17-Nov-20
 24\0\\#p b3lyp def2tzvpp scf=maxcycle=128 nosymm scrf=(smd,solvent=pro
 pylethanoate) empiricaldispersion=gd3bj guess=read\\Title Card Require
 d\\0,1\C,0,2.430615,-2.156139,-1.272724\C,0,1.213436,-2.721317,-1.9301
 36\C,0,0.498581,-3.759256,-1.147666\C,0,0.97637,-4.14002,0.057405\C,0,
 2.181325,-3.529223,0.573752\N,0,2.844544,-2.546544,-0.120904\H,0,0.440
 509,-4.89623,0.627279\C,0,3.227721,-1.094842,-1.94464\C,0,4.647081,-1.
 085787,-1.906184\C,0,5.330771,0.011792,-2.441486\C,0,3.263074,1.068999
 ,-3.094669\C,0,4.64992,1.081682,-3.020428\H,0,6.421555,0.010752,-2.429
 563\H,0,5.206451,1.927819,-3.426382\H,0,2.689157,1.884791,-3.533992\C,
 0,2.581853,-0.015394,-2.562422\C,0,5.457756,-2.215358,-1.361984\C,0,6.
 571274,-1.950498,-0.553308\C,0,5.16669,-3.551211,-1.676906\C,0,7.34889
 7,-2.991061,-0.041709\H,0,6.824296,-0.917426,-0.312282\C,0,5.941045,-4
 .590053,-1.168888\H,0,4.321813,-3.78166,-2.32897\C,0,7.033044,-4.31482
 2,-0.342091\H,0,8.206578,-2.761549,0.593422\H,0,5.68459,-5.620728,-1.4
 18212\H,0,7.63758,-5.130017,0.059651\F,0,1.249762,0.008468,-2.634203\C
 ,0,-0.749961,-4.336003,-1.728982\H,0,-1.270606,-3.595008,-2.346996\H,0
 ,-0.499474,-5.210083,-2.349958\H,0,-1.425929,-4.66714,-0.930298\C,0,2.
 130953,-4.84001,2.654561\C,0,3.868608,-3.151407,2.30505\C,0,3.232457,-
 5.748912,3.185834\H,0,1.388205,-5.462667,2.149402\H,0,1.658633,-4.2922
 29,3.486868\C,0,4.866121,-4.165725,2.842549\H,0,4.324869,-2.52546,1.53
 3112\H,0,3.504246,-2.516051,3.12885\H,0,3.625423,-6.354163,2.35147\H,0
 ,2.804773,-6.423607,3.939311\H,0,5.279028,-4.752371,2.00019\H,0,5.6900
 7,-3.632022,3.334759\N,0,2.699131,-3.844097,1.742849\O,0,4.26906,-5.01
 5098,3.787237\I,0,1.751301,-3.499012,-3.884983\H,0,0.506633,-1.919778,
 -2.182974\C,0,-5.067938,4.185575,-1.345063\C,0,-4.618338,2.984888,-0.8
 49508\C,0,-3.225214,2.736693,-0.699592\C,0,-2.308891,3.752152,-1.09436
 6\C,0,-2.802994,4.989865,-1.593437\C,0,-4.153294,5.203513,-1.714031\H,
 0,-6.139541,4.355274,-1.460885\H,0,-5.334016,2.207049,-0.581454\C,0,-2
 .718229,1.492447,-0.198348\C,0,-0.919861,3.515782,-0.976389\H,0,-2.084
 753,5.759254,-1.883484\H,0,-4.527089,6.152531,-2.10159\C,0,-0.430684,2
 .300349,-0.53523\C,0,-1.351813,1.262583,-0.175554\H,0,-0.217955,4.3111
 28,-1.233095\C,0,-3.693348,0.462676,0.299194\C,0,-3.841859,-0.762632,-
 0.322312\C,0,-4.404919,0.735059,1.516595\C,0,-4.650571,-1.793826,0.251
 212\C,0,-5.283869,-0.258368,2.03789\C,0,-4.250764,1.947225,2.247418\C,
 0,-5.376673,-1.51423,1.394357\C,0,-6.014326,0.001395,3.231335\C,0,-4.9
 62473,2.16782,3.402759\H,0,-3.555216,2.7071,1.892094\H,0,-6.00503,-2.2
 92852,1.831739\C,0,-5.862909,1.191772,3.89686\H,0,-6.687959,-0.770908,
 3.607862\H,0,-4.828181,3.103386,3.947948\H,0,-6.423392,1.385675,4.8127
 35\S,0,-0.806011,-0.418625,0.166302\O,0,-1.399165,-0.771049,1.423554\O
 ,0,0.625791,-0.500684,0.110034\S,0,-2.782781,-1.07296,-1.726133\O,0,-2
 .843091,0.092185,-2.556319\O,0,-3.161535,-2.302186,-2.351844\N,0,-1.36
 4401,-1.266637,-1.04762\C,0,0.985766,2.176632,-0.362861\C,0,2.179298,2
 .140802,-0.148839\C,0,-4.677598,-3.149516,-0.215656\C,0,-4.705008,-4.3
 41121,-0.446226\C,0,-4.669167,-5.739234,-0.752195\C,0,-5.221474,-6.702
 324,0.117791\C,0,-4.03429,-6.17328,-1.926577\C,0,-5.154794,-8.057707,-
 0.193655\C,0,-3.967932,-7.531034,-2.230194\H,0,-3.602281,-5.425485,-2.
 593196\C,0,-4.531725,-8.473455,-1.371048\H,0,-5.589053,-8.791063,0.486
 853\H,0,-3.473471,-7.854214,-3.147818\H,0,-4.483928,-9.536515,-1.61072
 3\C,0,3.546653,1.93092,0.217169\C,0,3.871041,0.741353,0.890672\C,0,4.5
 65034,2.866897,-0.045781\C,0,5.176031,0.511934,1.315687\H,0,3.075937,0
 .013507,1.068197\C,0,5.872217,2.621201,0.364966\C,0,6.177516,1.447219,
 1.05326\H,0,5.414867,-0.408602,1.851628\H,0,6.651321,3.354135,0.155154
 \H,0,7.201273,1.265617,1.38395\C,0,4.226818,4.143184,-0.769917\F,0,5.2
 98683,4.92135,-0.936445\F,0,3.316213,4.866171,-0.11052\F,0,3.72175,3.9
 13427,-1.988447\C,0,-5.873606,-6.252208,1.399686\F,0,-6.368232,-7.2795
 85,2.096121\F,0,-6.882275,-5.402804,1.184828\F,0,-5.007959,-5.622802,2
 .207001\N,0,1.568911,-7.800141,1.44135\C,0,1.371826,-9.073963,1.604957
 \C,0,2.05832,-9.982809,0.616724\C,0,2.631169,-8.972164,-0.370537\C,0,2
 .38603,-7.629915,0.321925\O,0,2.835075,-6.565023,-0.031263\O,0,0.62687
 1,-9.583897,2.532218\H,0,2.826067,-10.573945,1.137947\H,0,1.325183,-10
 .684004,0.194018\H,0,2.084022,-8.962911,-1.325552\H,0,3.698301,-9.0911
 38,-0.595651\C,0,-1.521104,-7.31504,1.870466\C,0,-1.941112,-6.035352,1
 .565059\C,0,-1.824008,-5.031674,2.547563\C,0,-1.330591,-5.382129,3.793
 516\C,0,-0.95483,-6.726798,4.051508\N,0,-1.009122,-7.639155,3.073042\H
 ,0,-1.26569,-4.620447,4.568152\C,0,-1.602086,-8.417763,0.868874\C,0,-2
 .160768,-9.678888,1.17193\C,0,-2.121348,-10.697939,0.211118\C,0,-0.978
 97,-9.254642,-1.35014\C,0,-1.539322,-10.490391,-1.038226\H,0,-2.571724
 ,-11.663392,0.447331\H,0,-1.524826,-11.295077,-1.774977\H,0,-0.510498,
 -9.049938,-2.313747\C,0,-1.024655,-8.250863,-0.392193\C,0,-2.786031,-9
 .955894,2.495041\C,0,-2.441338,-11.113468,3.203908\C,0,-3.723299,-9.07
 473,3.052693\C,0,-3.015132,-11.379423,4.448335\H,0,-1.698179,-11.79672
 9,2.787791\C,0,-4.301338,-9.342919,4.290258\H,0,-3.990303,-8.164464,2.
 513377\C,0,-3.945968,-10.496081,4.994607\H,0,-2.729077,-12.280309,4.99
 4291\H,0,-5.033444,-8.646731,4.703398\H,0,-4.3955,-10.704624,5.967095\
 F,0,-0.444615,-7.081442,-0.690005\C,0,-2.265915,-3.632479,2.243804\H,0
 ,-1.978118,-3.329959,1.225818\H,0,-3.364864,-3.573646,2.296947\H,0,-1.
 844866,-2.903579,2.946388\C,0,0.047791,-6.257044,6.266538\C,0,-0.23639
 1,-8.562618,5.508202\C,0,-0.230284,-6.751932,7.676978\H,0,-0.359006,-5
 .245946,6.165705\H,0,1.142422,-6.206043,6.109667\C,0,-0.494814,-8.9312
 83,6.960318\H,0,-0.878646,-9.18293,4.86896\H,0,0.819406,-8.771619,5.24
 9921\H,0,-1.314338,-6.666855,7.885368\H,0,0.315349,-6.133517,8.402007\
 H,0,-1.583638,-8.88314,7.155992\H,0,-0.152021,-9.957557,7.148387\N,0,-
 0.550648,-7.15667,5.289806\O,0,0.191156,-8.08137,7.845587\H,0,-2.35865
 5,-5.812883,0.58328\H,0,-0.001806,-8.848516,2.914379\\Version=ES64L-G1
 6RevC.01\HF=-6142.013013\RMSD=2.329e-09\Dipole=3.0774982,-5.372184,2.8
 372219\Quadrupole=-29.2044252,69.5781151,-40.3736899,-15.785941,-14.69
 63977,-4.2154402\PG=C01 [X(C86H65F8I1N6O8S2)]\\@
 The archive entry for this job was punched.


 Cherishing children is the mark of a civilized society.
 -- Joan Ganz Cooney
 Job cpu time:       2 days  4 hours 19 minutes 55.7 seconds.
 Elapsed time:       0 days  1 hours  6 minutes  0.7 seconds.
 File lengths (MBytes):  RWF=  12573 Int=      0 D2E=      0 Chk=   1383 Scr=      1
 Normal termination of Gaussian 16 at Sun Nov 17 18:48:32 2024.
