 Entering Gaussian System, Link 0=g16
 Initial command:
 /ihome/crc/install/gaussian/c01/avx2/tar/g16/l1.exe "/scratch/slurm-18031661/Gau-44175.inp" -scrdir="/scratch/slurm-18031661/"
 Entering Link 1 = /ihome/crc/install/gaussian/c01/avx2/tar/g16/l1.exe PID=     44176.
  
 Copyright (c) 1988-2019, Gaussian, Inc.  All Rights Reserved.
  
 This is part of the Gaussian(R) 16 program.  It is based on
 the Gaussian(R) 09 system (copyright 2009, Gaussian, Inc.),
 the Gaussian(R) 03 system (copyright 2003, Gaussian, Inc.),
 the Gaussian(R) 98 system (copyright 1998, Gaussian, Inc.),
 the Gaussian(R) 94 system (copyright 1995, Gaussian, Inc.),
 the Gaussian 92(TM) system (copyright 1992, Gaussian, Inc.),
 the Gaussian 90(TM) system (copyright 1990, Gaussian, Inc.),
 the Gaussian 88(TM) system (copyright 1988, Gaussian, Inc.),
 the Gaussian 86(TM) system (copyright 1986, Carnegie Mellon
 University), and the Gaussian 82(TM) system (copyright 1983,
 Carnegie Mellon University). Gaussian is a federally registered
 trademark of Gaussian, Inc.
  
 This software contains proprietary and confidential information,
 including trade secrets, belonging to Gaussian, Inc.
  
 This software is provided under written license and may be
 used, copied, transmitted, or stored only in accord with that
 written license.
  
 The following legend is applicable only to US Government
 contracts under FAR:
  
                    RESTRICTED RIGHTS LEGEND
  
 Use, reproduction and disclosure by the US Government is
 subject to restrictions as set forth in subparagraphs (a)
 and (c) of the Commercial Computer Software - Restricted
 Rights clause in FAR 52.227-19.
  
 Gaussian, Inc.
 340 Quinnipiac St., Bldg. 40, Wallingford CT 06492
  
  
 ---------------------------------------------------------------
 Warning -- This program may not be used in any manner that
 competes with the business of Gaussian, Inc. or will provide
 assistance to any competitor of Gaussian, Inc.  The licensee
 of this program is prohibited from giving any competitor of
 Gaussian, Inc. access to this program.  By using this program,
 the user acknowledges that Gaussian, Inc. is engaged in the
 business of creating and licensing software in the field of
 computational chemistry and represents and warrants to the
 licensee that it is not a competitor of Gaussian, Inc. and that
 it will not use this program in any manner prohibited above.
 ---------------------------------------------------------------
  

 Cite this work as:
 Gaussian 16, Revision C.01,
 M. J. Frisch, G. W. Trucks, H. B. Schlegel, G. E. Scuseria, 
 M. A. Robb, J. R. Cheeseman, G. Scalmani, V. Barone, 
 G. A. Petersson, H. Nakatsuji, X. Li, M. Caricato, A. V. Marenich, 
 J. Bloino, B. G. Janesko, R. Gomperts, B. Mennucci, H. P. Hratchian, 
 J. V. Ortiz, A. F. Izmaylov, J. L. Sonnenberg, D. Williams-Young, 
 F. Ding, F. Lipparini, F. Egidi, J. Goings, B. Peng, A. Petrone, 
 T. Henderson, D. Ranasinghe, V. G. Zakrzewski, J. Gao, N. Rega, 
 G. Zheng, W. Liang, M. Hada, M. Ehara, K. Toyota, R. Fukuda, 
 J. Hasegawa, M. Ishida, T. Nakajima, Y. Honda, O. Kitao, H. Nakai, 
 T. Vreven, K. Throssell, J. A. Montgomery, Jr., J. E. Peralta, 
 F. Ogliaro, M. J. Bearpark, J. J. Heyd, E. N. Brothers, K. N. Kudin, 
 V. N. Staroverov, T. A. Keith, R. Kobayashi, J. Normand, 
 K. Raghavachari, A. P. Rendell, J. C. Burant, S. S. Iyengar, 
 J. Tomasi, M. Cossi, J. M. Millam, M. Klene, C. Adamo, R. Cammi, 
 J. W. Ochterski, R. L. Martin, K. Morokuma, O. Farkas, 
 J. B. Foresman, and D. J. Fox, Gaussian, Inc., Wallingford CT, 2019.
 
 ******************************************
 Gaussian 16:  ES64L-G16RevC.01  3-Jul-2019
                 8-Feb-2025 
 ******************************************
 %nprocshared=32
 Will use up to   32 processors via shared memory.
 %mem=54GB
 ----------------------------------------------------------------------
 #p b3lyp def2tzvpp scf=maxcycle=128 nosymm scrf=(smd,solvent=propyleth
 anoate) empiricaldispersion=gd3bj
 ----------------------------------------------------------------------
 1/38=1,172=1/1;
 2/12=2,15=1,17=6,18=5,40=1/2;
 3/5=44,7=202,11=2,25=1,30=1,70=32201,72=169,74=-5,124=41/1,2,3;
 4//1;
 5/5=2,7=128,38=5,53=169/2;
 6/7=2,8=2,9=2,10=2,28=1/1;
 99/5=1,9=1/99;
 Leave Link    1 at Sat Feb  8 15:00:08 2025, MaxMem=  7247757312 cpu:               0.6 elap:               0.0
 (Enter /ihome/crc/install/gaussian/c01/avx2/tar/g16/l101.exe)
 -------------------------
 alkyneCF3_R-ax-S_02_rotRR
 -------------------------
 Symbolic Z-matrix:
 Charge =  0 Multiplicity = 1
 C                    -2.52765  -2.86342  -1.07714 
 C                    -1.48103  -3.93312  -1.02394 
 C                    -0.22426  -3.50827  -0.35466 
 C                    -0.24896  -2.41846   0.43655 
 C                    -1.5011   -1.6976    0.6131 
 N                    -2.54247  -1.86029  -0.27997 
 H                     0.6595   -2.05429   0.90886 
 C                    -3.62291  -3.03002  -2.06787 
 C                    -3.36306  -3.16708  -3.44835 
 C                    -4.42559  -3.47001  -4.30843 
 C                    -5.99309  -3.44253  -2.46335 
 C                    -5.72218  -3.61614  -3.81885 
 H                    -4.23287  -3.56136  -5.37863 
 H                    -6.53797  -3.85076  -4.50439 
 H                    -6.99763  -3.54006  -2.05072 
 C                    -4.939    -3.142    -1.61388 
 C                    -1.99058  -2.94733  -3.97684 
 C                    -1.45048  -3.79921  -4.95127 
 C                    -1.20463  -1.89243  -3.48494 
 C                    -0.14739  -3.60787  -5.40816 
 H                    -2.04594  -4.63166  -5.33223 
 C                     0.1001   -1.70519  -3.94027 
 H                    -1.60154  -1.1947   -2.74537 
 C                     0.63209  -2.56487  -4.90188 
 H                     0.26608  -4.28429  -6.15826 
 H                     0.68864  -0.87961  -3.53333 
 H                     1.6535   -2.42253  -5.25882 
 F                    -5.18166  -3.01552  -0.3077 
 C                     1.00536  -4.31135  -0.61611 
 H                     0.83081  -5.37059  -0.37121 
 H                     1.25344  -4.25979  -1.68827 
 H                     1.85696  -3.93797  -0.03545 
 C                    -2.97361  -0.14947   1.79385 
 C                    -0.78107  -0.62896   2.71148 
 C                    -3.57716  -0.58372   3.12422 
 H                    -3.64605  -0.36177   0.96108 
 H                    -2.74198   0.92573   1.82289 
 C                    -1.47797  -1.03824   4.00797 
 H                     0.14483  -1.1945    2.582 
 H                    -0.53282   0.44147   2.72308 
 H                    -3.8486   -1.65567   3.06863 
 H                    -4.48792  -0.001     3.3124 
 H                    -1.6508   -2.1319    3.99775 
 H                    -0.82449  -0.79436   4.85519 
 N                    -1.70413  -0.85979   1.5982 
 O                    -2.68766  -0.3509    4.18488 
 I                    -2.38708  -5.57254   0.0973 
 H                    -1.30632  -4.39608  -1.99994 
 C                     3.20298   5.99216  -2.34529 
 C                     2.50468   5.13914  -1.5244 
 C                     3.16867   4.08008  -0.84256 
 C                     4.56716   3.91153  -1.05422 
 C                     5.26569   4.81611  -1.90244 
 C                     4.59947   5.83743  -2.53138 
 H                     2.67548   6.79445  -2.86351 
 H                     1.42906   5.26835  -1.40353 
 C                     2.48292   3.16804   0.02778 
 C                     5.23962   2.8344   -0.43359 
 H                     6.33845   4.6727   -2.04573 
 H                     5.13848   6.52651  -3.18342 
 C                     4.56832   1.92478   0.36396 
 C                     3.16787   2.10848   0.59425 
 H                     6.31099   2.70706  -0.59995 
 C                     1.01604   3.394     0.26152 
 C                     0.05609   2.53249  -0.23801 
 C                     0.61967   4.53977   1.02871 
 C                    -1.34012   2.81987  -0.09164 
 C                    -0.76746   4.80439   1.21027 
 C                     1.56168   5.4045    1.65276 
 C                    -1.72181   3.94238   0.62151 
 C                    -1.17498   5.93265   1.97543 
 C                     1.13997   6.48141   2.39586 
 H                     2.62806   5.20105   1.55213 
 H                    -2.78411   4.17146   0.72584 
 C                    -0.24139   6.75574   2.55378 
 H                    -2.24331   6.12301   2.09559 
 H                     1.87654   7.12925   2.87362 
 H                    -0.55809   7.61782   3.14287 
 S                     2.1806    0.92226   1.50052 
 O                     1.43071   1.69558   2.45169 
 O                     3.01182  -0.10491   2.04744 
 S                     0.62889   0.95453  -0.86445 
 O                     1.58984   1.22831  -1.89191 
 O                    -0.5086    0.17615  -1.26339 
 N                     1.2539    0.25978   0.40459 
 C                     5.34838   0.85465   0.91346 
 C                     6.11701   0.00528   1.31303 
 C                    -2.39522   2.06429  -0.70605 
 C                    -3.38305   1.57186  -1.21161 
 C                    -4.51159   0.98789  -1.87282 
 C                    -5.81748   1.08431  -1.34917 
 C                    -4.32674   0.33912  -3.10491 
 C                    -6.89809   0.53955  -2.03798 
 C                    -5.41362  -0.18573  -3.7973 
 H                    -3.31933   0.27442  -3.51865 
 C                    -6.69852  -0.09317  -3.26417 
 H                    -7.90103   0.62262  -1.61936 
 H                    -5.25305  -0.66928  -4.76189 
 H                    -7.55046  -0.50959  -3.80359 
 C                     6.97332  -1.02734   1.81353 
 C                     8.34054  -1.08701   1.47425 
 C                     6.44413  -2.00975   2.66457 
 C                     9.1492   -2.10199   1.97633 
 C                     7.25856  -3.02231   3.16364 
 H                     5.38584  -1.95959   2.92315 
 C                     8.60937  -3.07109   2.82217 
 H                     10.20454  -2.13511   1.7054 
 H                     6.83369  -3.77884   3.82514 
 H                     9.24803  -3.86406   3.21314 
 C                     8.92228  -0.03952   0.5602 
 F                     8.80005   1.19192   1.06773 
 F                     8.31763  -0.02375  -0.6323 
 F                     10.22253  -0.24081   0.33541 
 C                    -6.05064   1.80798  -0.04863 
 F                    -5.62651   3.07517  -0.09608 
 F                    -5.40692   1.22974   0.976 
 F                    -7.34261   1.84079   0.28002 
 
 ITRead=  0  0  0  0  0  0  0  0  0  0  0  0  0  0  0  0  0  0  0  0
 ITRead=  0  0  0  0  0  0  0  0  0  0  0  0  0  0  0  0  0  0  0  0
 ITRead=  0  0  0  0  0  0  0  0  0  0  0  0  0  0  0  0  0  0  0  0
 ITRead=  0  0  0  0  0  0  0  0  0  0  0  0  0  0  0  0  0  0  0  0
 ITRead=  0  0  0  0  0  0  0  0  0  0  0  0  0  0  0  0  0  0  0  0
 ITRead=  0  0  0  0  0  0  0  0  0  0  0  0  0  0  0  0  0
 MicOpt= -1 -1 -1 -1 -1 -1 -1 -1 -1 -1 -1 -1 -1 -1 -1 -1 -1 -1 -1 -1
 MicOpt= -1 -1 -1 -1 -1 -1 -1 -1 -1 -1 -1 -1 -1 -1 -1 -1 -1 -1 -1 -1
 MicOpt= -1 -1 -1 -1 -1 -1 -1 -1 -1 -1 -1 -1 -1 -1 -1 -1 -1 -1 -1 -1
 MicOpt= -1 -1 -1 -1 -1 -1 -1 -1 -1 -1 -1 -1 -1 -1 -1 -1 -1 -1 -1 -1
 MicOpt= -1 -1 -1 -1 -1 -1 -1 -1 -1 -1 -1 -1 -1 -1 -1 -1 -1 -1 -1 -1
 MicOpt= -1 -1 -1 -1 -1 -1 -1 -1 -1 -1 -1 -1 -1 -1 -1 -1 -1
 NAtoms=    117 NQM=      117 NQMF=       0 NMMI=      0 NMMIF=      0
                NMic=       0 NMicF=      0.
                    Isotopes and Nuclear Properties:
 (Nuclear quadrupole moments (NQMom) in fm**2, nuclear magnetic moments (NMagM)
  in nuclear magnetons)

  Atom         1           2           3           4           5           6           7           8           9          10
 IAtWgt=          12          12          12          12          12          14           1          12          12          12
 AtmWgt=  12.0000000  12.0000000  12.0000000  12.0000000  12.0000000  14.0030740   1.0078250  12.0000000  12.0000000  12.0000000
 NucSpn=           0           0           0           0           0           2           1           0           0           0
 AtZEff=  -0.0000000  -0.0000000  -0.0000000  -0.0000000  -0.0000000  -0.0000000  -0.0000000  -0.0000000  -0.0000000  -0.0000000
 NQMom=    0.0000000   0.0000000   0.0000000   0.0000000   0.0000000   2.0440000   0.0000000   0.0000000   0.0000000   0.0000000
 NMagM=    0.0000000   0.0000000   0.0000000   0.0000000   0.0000000   0.4037610   2.7928460   0.0000000   0.0000000   0.0000000
 AtZNuc=   6.0000000   6.0000000   6.0000000   6.0000000   6.0000000   7.0000000   1.0000000   6.0000000   6.0000000   6.0000000

  Atom        11          12          13          14          15          16          17          18          19          20
 IAtWgt=          12          12           1           1           1          12          12          12          12          12
 AtmWgt=  12.0000000  12.0000000   1.0078250   1.0078250   1.0078250  12.0000000  12.0000000  12.0000000  12.0000000  12.0000000
 NucSpn=           0           0           1           1           1           0           0           0           0           0
 AtZEff=  -0.0000000  -0.0000000  -0.0000000  -0.0000000  -0.0000000  -0.0000000  -0.0000000  -0.0000000  -0.0000000  -0.0000000
 NQMom=    0.0000000   0.0000000   0.0000000   0.0000000   0.0000000   0.0000000   0.0000000   0.0000000   0.0000000   0.0000000
 NMagM=    0.0000000   0.0000000   2.7928460   2.7928460   2.7928460   0.0000000   0.0000000   0.0000000   0.0000000   0.0000000
 AtZNuc=   6.0000000   6.0000000   1.0000000   1.0000000   1.0000000   6.0000000   6.0000000   6.0000000   6.0000000   6.0000000

  Atom        21          22          23          24          25          26          27          28          29          30
 IAtWgt=           1          12           1          12           1           1           1          19          12           1
 AtmWgt=   1.0078250  12.0000000   1.0078250  12.0000000   1.0078250   1.0078250   1.0078250  18.9984032  12.0000000   1.0078250
 NucSpn=           1           0           1           0           1           1           1           1           0           1
 AtZEff=  -0.0000000  -0.0000000  -0.0000000  -0.0000000  -0.0000000  -0.0000000  -0.0000000  -0.0000000  -0.0000000  -0.0000000
 NQMom=    0.0000000   0.0000000   0.0000000   0.0000000   0.0000000   0.0000000   0.0000000   0.0000000   0.0000000   0.0000000
 NMagM=    2.7928460   0.0000000   2.7928460   0.0000000   2.7928460   2.7928460   2.7928460   2.6288670   0.0000000   2.7928460
 AtZNuc=   1.0000000   6.0000000   1.0000000   6.0000000   1.0000000   1.0000000   1.0000000   9.0000000   6.0000000   1.0000000

  Atom        31          32          33          34          35          36          37          38          39          40
 IAtWgt=           1           1          12          12          12           1           1          12           1           1
 AtmWgt=   1.0078250   1.0078250  12.0000000  12.0000000  12.0000000   1.0078250   1.0078250  12.0000000   1.0078250   1.0078250
 NucSpn=           1           1           0           0           0           1           1           0           1           1
 AtZEff=  -0.0000000  -0.0000000  -0.0000000  -0.0000000  -0.0000000  -0.0000000  -0.0000000  -0.0000000  -0.0000000  -0.0000000
 NQMom=    0.0000000   0.0000000   0.0000000   0.0000000   0.0000000   0.0000000   0.0000000   0.0000000   0.0000000   0.0000000
 NMagM=    2.7928460   2.7928460   0.0000000   0.0000000   0.0000000   2.7928460   2.7928460   0.0000000   2.7928460   2.7928460
 AtZNuc=   1.0000000   1.0000000   6.0000000   6.0000000   6.0000000   1.0000000   1.0000000   6.0000000   1.0000000   1.0000000

  Atom        41          42          43          44          45          46          47          48          49          50
 IAtWgt=           1           1           1           1          14          16         127           1          12          12
 AtmWgt=   1.0078250   1.0078250   1.0078250   1.0078250  14.0030740  15.9949146 126.9004000   1.0078250  12.0000000  12.0000000
 NucSpn=           1           1           1           1           2           0           5           1           0           0
 AtZEff=  -0.0000000  -0.0000000  -0.0000000  -0.0000000  -0.0000000  -0.0000000  -0.0000000  -0.0000000  -0.0000000  -0.0000000
 NQMom=    0.0000000   0.0000000   0.0000000   0.0000000   2.0440000   0.0000000 -71.0000000   0.0000000   0.0000000   0.0000000
 NMagM=    2.7928460   2.7928460   2.7928460   2.7928460   0.4037610   0.0000000   2.8132800   2.7928460   0.0000000   0.0000000
 AtZNuc=   1.0000000   1.0000000   1.0000000   1.0000000   7.0000000   8.0000000  53.0000000   1.0000000   6.0000000   6.0000000

  Atom        51          52          53          54          55          56          57          58          59          60
 IAtWgt=          12          12          12          12           1           1          12          12           1           1
 AtmWgt=  12.0000000  12.0000000  12.0000000  12.0000000   1.0078250   1.0078250  12.0000000  12.0000000   1.0078250   1.0078250
 NucSpn=           0           0           0           0           1           1           0           0           1           1
 AtZEff=  -0.0000000  -0.0000000  -0.0000000  -0.0000000  -0.0000000  -0.0000000  -0.0000000  -0.0000000  -0.0000000  -0.0000000
 NQMom=    0.0000000   0.0000000   0.0000000   0.0000000   0.0000000   0.0000000   0.0000000   0.0000000   0.0000000   0.0000000
 NMagM=    0.0000000   0.0000000   0.0000000   0.0000000   2.7928460   2.7928460   0.0000000   0.0000000   2.7928460   2.7928460
 AtZNuc=   6.0000000   6.0000000   6.0000000   6.0000000   1.0000000   1.0000000   6.0000000   6.0000000   1.0000000   1.0000000

  Atom        61          62          63          64          65          66          67          68          69          70
 IAtWgt=          12          12           1          12          12          12          12          12          12          12
 AtmWgt=  12.0000000  12.0000000   1.0078250  12.0000000  12.0000000  12.0000000  12.0000000  12.0000000  12.0000000  12.0000000
 NucSpn=           0           0           1           0           0           0           0           0           0           0
 AtZEff=  -0.0000000  -0.0000000  -0.0000000  -0.0000000  -0.0000000  -0.0000000  -0.0000000  -0.0000000  -0.0000000  -0.0000000
 NQMom=    0.0000000   0.0000000   0.0000000   0.0000000   0.0000000   0.0000000   0.0000000   0.0000000   0.0000000   0.0000000
 NMagM=    0.0000000   0.0000000   2.7928460   0.0000000   0.0000000   0.0000000   0.0000000   0.0000000   0.0000000   0.0000000
 AtZNuc=   6.0000000   6.0000000   1.0000000   6.0000000   6.0000000   6.0000000   6.0000000   6.0000000   6.0000000   6.0000000

  Atom        71          72          73          74          75          76          77          78          79          80
 IAtWgt=          12          12           1           1          12           1           1           1          32          16
 AtmWgt=  12.0000000  12.0000000   1.0078250   1.0078250  12.0000000   1.0078250   1.0078250   1.0078250  31.9720718  15.9949146
 NucSpn=           0           0           1           1           0           1           1           1           0           0
 AtZEff=  -0.0000000  -0.0000000  -0.0000000  -0.0000000  -0.0000000  -0.0000000  -0.0000000  -0.0000000  -0.0000000  -0.0000000
 NQMom=    0.0000000   0.0000000   0.0000000   0.0000000   0.0000000   0.0000000   0.0000000   0.0000000   0.0000000   0.0000000
 NMagM=    0.0000000   0.0000000   2.7928460   2.7928460   0.0000000   2.7928460   2.7928460   2.7928460   0.0000000   0.0000000
 AtZNuc=   6.0000000   6.0000000   1.0000000   1.0000000   6.0000000   1.0000000   1.0000000   1.0000000  16.0000000   8.0000000

  Atom        81          82          83          84          85          86          87          88          89          90
 IAtWgt=          16          32          16          16          14          12          12          12          12          12
 AtmWgt=  15.9949146  31.9720718  15.9949146  15.9949146  14.0030740  12.0000000  12.0000000  12.0000000  12.0000000  12.0000000
 NucSpn=           0           0           0           0           2           0           0           0           0           0
 AtZEff=  -0.0000000  -0.0000000  -0.0000000  -0.0000000  -0.0000000  -0.0000000  -0.0000000  -0.0000000  -0.0000000  -0.0000000
 NQMom=    0.0000000   0.0000000   0.0000000   0.0000000   2.0440000   0.0000000   0.0000000   0.0000000   0.0000000   0.0000000
 NMagM=    0.0000000   0.0000000   0.0000000   0.0000000   0.4037610   0.0000000   0.0000000   0.0000000   0.0000000   0.0000000
 AtZNuc=   8.0000000  16.0000000   8.0000000   8.0000000   7.0000000   6.0000000   6.0000000   6.0000000   6.0000000   6.0000000

  Atom        91          92          93          94          95          96          97          98          99         100
 IAtWgt=          12          12          12          12           1          12           1           1           1          12
 AtmWgt=  12.0000000  12.0000000  12.0000000  12.0000000   1.0078250  12.0000000   1.0078250   1.0078250   1.0078250  12.0000000
 NucSpn=           0           0           0           0           1           0           1           1           1           0
 AtZEff=  -0.0000000  -0.0000000  -0.0000000  -0.0000000  -0.0000000  -0.0000000  -0.0000000  -0.0000000  -0.0000000  -0.0000000
 NQMom=    0.0000000   0.0000000   0.0000000   0.0000000   0.0000000   0.0000000   0.0000000   0.0000000   0.0000000   0.0000000
 NMagM=    0.0000000   0.0000000   0.0000000   0.0000000   2.7928460   0.0000000   2.7928460   2.7928460   2.7928460   0.0000000
 AtZNuc=   6.0000000   6.0000000   6.0000000   6.0000000   1.0000000   6.0000000   1.0000000   1.0000000   1.0000000   6.0000000

  Atom       101         102         103         104         105         106         107         108         109         110
 IAtWgt=          12          12          12          12           1          12           1           1           1          12
 AtmWgt=  12.0000000  12.0000000  12.0000000  12.0000000   1.0078250  12.0000000   1.0078250   1.0078250   1.0078250  12.0000000
 NucSpn=           0           0           0           0           1           0           1           1           1           0
 AtZEff=  -0.0000000  -0.0000000  -0.0000000  -0.0000000  -0.0000000  -0.0000000  -0.0000000  -0.0000000  -0.0000000  -0.0000000
 NQMom=    0.0000000   0.0000000   0.0000000   0.0000000   0.0000000   0.0000000   0.0000000   0.0000000   0.0000000   0.0000000
 NMagM=    0.0000000   0.0000000   0.0000000   0.0000000   2.7928460   0.0000000   2.7928460   2.7928460   2.7928460   0.0000000
 AtZNuc=   6.0000000   6.0000000   6.0000000   6.0000000   1.0000000   6.0000000   1.0000000   1.0000000   1.0000000   6.0000000

  Atom       111         112         113         114         115         116         117
 IAtWgt=          19          19          19          12          19          19          19
 AtmWgt=  18.9984032  18.9984032  18.9984032  12.0000000  18.9984032  18.9984032  18.9984032
 NucSpn=           1           1           1           0           1           1           1
 AtZEff=  -0.0000000  -0.0000000  -0.0000000  -0.0000000  -0.0000000  -0.0000000  -0.0000000
 NQMom=    0.0000000   0.0000000   0.0000000   0.0000000   0.0000000   0.0000000   0.0000000
 NMagM=    2.6288670   2.6288670   2.6288670   0.0000000   2.6288670   2.6288670   2.6288670
 AtZNuc=   9.0000000   9.0000000   9.0000000   6.0000000   9.0000000   9.0000000   9.0000000
 Leave Link  101 at Sat Feb  8 15:00:08 2025, MaxMem=  7247757312 cpu:               0.9 elap:               0.0
 (Enter /ihome/crc/install/gaussian/c01/avx2/tar/g16/l202.exe)
 Symmetry turned off by external request.
 Stoichiometry    C60H39F7IN3O5S2
 Framework group  C1[X(C60H39F7IN3O5S2)]
 Deg. of freedom   345
 Full point group                 C1      NOp   1
                          Input orientation:                          
 ---------------------------------------------------------------------
 Center     Atomic      Atomic             Coordinates (Angstroms)
 Number     Number       Type             X           Y           Z
 ---------------------------------------------------------------------
      1          6           0       -2.527654   -2.863423   -1.077136
      2          6           0       -1.481025   -3.933116   -1.023942
      3          6           0       -0.224259   -3.508274   -0.354656
      4          6           0       -0.248964   -2.418463    0.436553
      5          6           0       -1.501097   -1.697598    0.613099
      6          7           0       -2.542473   -1.860292   -0.279970
      7          1           0        0.659499   -2.054290    0.908855
      8          6           0       -3.622910   -3.030016   -2.067871
      9          6           0       -3.363058   -3.167075   -3.448354
     10          6           0       -4.425589   -3.470012   -4.308433
     11          6           0       -5.993091   -3.442530   -2.463351
     12          6           0       -5.722178   -3.616139   -3.818849
     13          1           0       -4.232870   -3.561363   -5.378632
     14          1           0       -6.537973   -3.850757   -4.504391
     15          1           0       -6.997634   -3.540055   -2.050722
     16          6           0       -4.938999   -3.141998   -1.613878
     17          6           0       -1.990575   -2.947327   -3.976844
     18          6           0       -1.450483   -3.799208   -4.951272
     19          6           0       -1.204629   -1.892428   -3.484937
     20          6           0       -0.147386   -3.607870   -5.408161
     21          1           0       -2.045936   -4.631662   -5.332231
     22          6           0        0.100101   -1.705185   -3.940269
     23          1           0       -1.601535   -1.194700   -2.745371
     24          6           0        0.632092   -2.564871   -4.901878
     25          1           0        0.266081   -4.284294   -6.158263
     26          1           0        0.688643   -0.879605   -3.533328
     27          1           0        1.653495   -2.422531   -5.258819
     28          9           0       -5.181657   -3.015520   -0.307700
     29          6           0        1.005356   -4.311348   -0.616105
     30          1           0        0.830805   -5.370590   -0.371209
     31          1           0        1.253440   -4.259789   -1.688270
     32          1           0        1.856964   -3.937969   -0.035453
     33          6           0       -2.973605   -0.149469    1.793847
     34          6           0       -0.781071   -0.628964    2.711481
     35          6           0       -3.577158   -0.583722    3.124222
     36          1           0       -3.646048   -0.361769    0.961077
     37          1           0       -2.741978    0.925730    1.822886
     38          6           0       -1.477971   -1.038244    4.007969
     39          1           0        0.144831   -1.194504    2.581999
     40          1           0       -0.532821    0.441470    2.723076
     41          1           0       -3.848601   -1.655667    3.068633
     42          1           0       -4.487917   -0.001000    3.312397
     43          1           0       -1.650803   -2.131897    3.997753
     44          1           0       -0.824486   -0.794362    4.855187
     45          7           0       -1.704130   -0.859791    1.598202
     46          8           0       -2.687660   -0.350898    4.184882
     47         53           0       -2.387084   -5.572536    0.097299
     48          1           0       -1.306320   -4.396083   -1.999939
     49          6           0        3.202981    5.992164   -2.345288
     50          6           0        2.504677    5.139140   -1.524396
     51          6           0        3.168670    4.080082   -0.842557
     52          6           0        4.567158    3.911526   -1.054216
     53          6           0        5.265686    4.816112   -1.902443
     54          6           0        4.599471    5.837431   -2.531384
     55          1           0        2.675475    6.794449   -2.863512
     56          1           0        1.429063    5.268348   -1.403531
     57          6           0        2.482918    3.168041    0.027783
     58          6           0        5.239624    2.834397   -0.433592
     59          1           0        6.338453    4.672699   -2.045731
     60          1           0        5.138476    6.526515   -3.183421
     61          6           0        4.568324    1.924780    0.363961
     62          6           0        3.167875    2.108476    0.594253
     63          1           0        6.310986    2.707056   -0.599951
     64          6           0        1.016037    3.393998    0.261517
     65          6           0        0.056091    2.532492   -0.238012
     66          6           0        0.619672    4.539765    1.028710
     67          6           0       -1.340119    2.819873   -0.091642
     68          6           0       -0.767462    4.804387    1.210267
     69          6           0        1.561682    5.404502    1.652755
     70          6           0       -1.721806    3.942384    0.621512
     71          6           0       -1.174979    5.932646    1.975428
     72          6           0        1.139969    6.481405    2.395864
     73          1           0        2.628056    5.201051    1.552125
     74          1           0       -2.784113    4.171458    0.725841
     75          6           0       -0.241390    6.755741    2.553779
     76          1           0       -2.243311    6.123011    2.095586
     77          1           0        1.876535    7.129253    2.873617
     78          1           0       -0.558091    7.617820    3.142874
     79         16           0        2.180601    0.922258    1.500518
     80          8           0        1.430706    1.695575    2.451692
     81          8           0        3.011816   -0.104911    2.047440
     82         16           0        0.628890    0.954528   -0.864452
     83          8           0        1.589839    1.228313   -1.891908
     84          8           0       -0.508599    0.176146   -1.263390
     85          7           0        1.253902    0.259777    0.404593
     86          6           0        5.348380    0.854654    0.913455
     87          6           0        6.117013    0.005282    1.313034
     88          6           0       -2.395221    2.064295   -0.706046
     89          6           0       -3.383048    1.571860   -1.211606
     90          6           0       -4.511591    0.987892   -1.872817
     91          6           0       -5.817481    1.084312   -1.349173
     92          6           0       -4.326738    0.339117   -3.104910
     93          6           0       -6.898087    0.539552   -2.037976
     94          6           0       -5.413620   -0.185729   -3.797303
     95          1           0       -3.319328    0.274420   -3.518654
     96          6           0       -6.698521   -0.093172   -3.264165
     97          1           0       -7.901026    0.622620   -1.619362
     98          1           0       -5.253053   -0.669278   -4.761892
     99          1           0       -7.550463   -0.509585   -3.803588
    100          6           0        6.973317   -1.027340    1.813526
    101          6           0        8.340536   -1.087011    1.474249
    102          6           0        6.444133   -2.009750    2.664566
    103          6           0        9.149200   -2.101992    1.976328
    104          6           0        7.258560   -3.022314    3.163640
    105          1           0        5.385841   -1.959585    2.923150
    106          6           0        8.609367   -3.071093    2.822167
    107          1           0       10.204544   -2.135112    1.705395
    108          1           0        6.833692   -3.778842    3.825135
    109          1           0        9.248025   -3.864064    3.213145
    110          6           0        8.922276   -0.039521    0.560199
    111          9           0        8.800045    1.191918    1.067727
    112          9           0        8.317634   -0.023751   -0.632300
    113          9           0       10.222533   -0.240813    0.335409
    114          6           0       -6.050638    1.807978   -0.048633
    115          9           0       -5.626510    3.075167   -0.096081
    116          9           0       -5.406924    1.229738    0.975997
    117          9           0       -7.342607    1.840789    0.280023
 ---------------------------------------------------------------------
 Rotational constants (GHZ):           0.0311448           0.0172486           0.0138702
 Leave Link  202 at Sat Feb  8 15:00:09 2025, MaxMem=  7247757312 cpu:               1.5 elap:               0.1
 (Enter /ihome/crc/install/gaussian/c01/avx2/tar/g16/l301.exe)
 Standard basis: def2TZVPP (5D, 7F)
 Ernie: Thresh=  0.10000D-02 Tol=  0.10000D-05 Strict=F.
  3005 basis functions,  4735 primitive gaussians,  3440 cartesian basis functions
   290 alpha electrons      290 beta electrons
       nuclear repulsion energy     15167.2184690007 Hartrees.
 IExCor=  402 DFT=T Ex+Corr=B3LYP ExCW=0 ScaHFX=  0.200000
 ScaDFX=  0.800000  0.720000  1.000000  0.810000 ScalE2=  1.000000  1.000000
 IRadAn=      5 IRanWt=     -1 IRanGd=            0 ICorTp=0 IEmpDi=141
 NAtoms=  117 NActive=  117 NUniq=  117 SFac= 1.00D+00 NAtFMM=   60 NAOKFM=T Big=T
 Integral buffers will be    131072 words long.
 Raffenetti 2 integral format.
 Two-electron integral symmetry is turned off.
 R6Disp:  Grimme-D3(BJ) Dispersion energy=       -0.3739492121 Hartrees.
 Nuclear repulsion after empirical dispersion term =    15166.8445197886 Hartrees.
 ------------------------------------------------------------------------------
 Polarizable Continuum Model (PCM)
 =================================
 Model                : PCM.
 Atomic radii         : SMD-Coulomb.
 Polarization charges : Total charges.
 Charge compensation  : None.
 Solution method      : On-the-fly selection.
 Cavity type          : VdW (van der Waals Surface) (Alpha=1.000).
 Cavity algorithm     : GePol (No added spheres)
                        Default sphere list used, NSphG=  117.
                        Lebedev-Laikov grids with approx.  5.0 points / Ang**2.
                        Smoothing algorithm: York/Karplus (Gamma=1.0000).
                        Polarization charges: spherical gaussians, with
                                              point-specific exponents (IZeta= 3).
                        Self-potential: point-specific (ISelfS= 7).
                        Self-field    : sphere-specific E.n sum rule (ISelfD= 2).
 Solvent              : PropylEthanoate, Eps=   5.520500 Eps(inf)=   1.916010
 ------------------------------------------------------------------------------
 GePol: Number of generator spheres                  =     117
 GePol: Total number of spheres                      =     117
 GePol: Number of exposed spheres                    =     117 (100.00%)
 GePol: Number of points                             =    8491
 GePol: Average weight of points                     =       0.11
 GePol: Minimum weight of points                     =   0.16D-11
 GePol: Maximum weight of points                     =    0.21501
 GePol: Number of points with low weight             =     523
 GePol: Fraction of low-weight points (<1% of avg)   =       6.16%
 GePol: Cavity surface area                          =    968.368 Ang**2
 GePol: Cavity volume                                =   1078.727 Ang**3
 ------------------------------------------------------------------------------
 Atomic radii for non-electrostatic terms: SMD-CDS.
 ------------------------------------------------------------------------------
 PCM non-electrostatic energy =        -0.0210261089 Hartrees.
 Nuclear repulsion after PCM non-electrostatic terms =    15166.8234936797 Hartrees.
 Leave Link  301 at Sat Feb  8 15:00:09 2025, MaxMem=  7247757312 cpu:               1.8 elap:               0.1
 (Enter /ihome/crc/install/gaussian/c01/avx2/tar/g16/l302.exe)
 NPDir=0 NMtPBC=     1 NCelOv=     1 NCel=       1 NClECP=     1 NCelD=      1
         NCelK=      1 NCelE2=     1 NClLst=     1 CellRange=     0.0.
 One-electron integrals computed using PRISM.
   1 Symmetry operations used in ECPInt.
 ECPInt:  NShTT=  608856 NPrTT= 1802125 LenC2=  372250 LenP2D=  701628.
 LDataN:  DoStor=T MaxTD1= 7 Len=  274
 Number of processors reduced to  15 by ecpmxn.
 NBasis=  3005 RedAO= T EigKep=  1.97D-06  NBF=  3005
 NBsUse=  3005 1.00D-06 EigRej= -1.00D+00 NBFU=  3005
 Precomputing XC quadrature grid using
 IXCGrd= 4 IRadAn=           5 IRanWt=          -1 IRanGd=           0 AccXCQ= 0.00D+00.
 Defaulting to unpruned grid for atomic number  53.
 Generated NRdTot=       0 NPtTot=           0 NUsed=           0 NTot=          32
 NSgBfM=  2911  2867  2890  2899  2911 MxSgAt=   117 MxSgA2=   117.
 Leave Link  302 at Sat Feb  8 15:00:23 2025, MaxMem=  7247757312 cpu:             436.2 elap:              14.5
 (Enter /ihome/crc/install/gaussian/c01/avx2/tar/g16/l303.exe)
 DipDrv:  MaxL=1.
 Leave Link  303 at Sat Feb  8 15:00:24 2025, MaxMem=  7247757312 cpu:              14.4 elap:               0.7
 (Enter /ihome/crc/install/gaussian/c01/avx2/tar/g16/l401.exe)
 ExpMin= 7.49D-02 ExpMax= 6.07D+04 ExpMxC= 2.07D+03 IAcc=3 IRadAn=         5 AccDes= 0.00D+00
 Harris functional with IExCor=  402 and IRadAn=       5 diagonalized for initial guess.
 HarFok:  IExCor=  402 AccDes= 0.00D+00 IRadAn=         5 IDoV= 1 UseB2=F ITyADJ=14
 ICtDFT=  3500011 ScaDFX=  1.000000  1.000000  1.000000  1.000000
 Defaulting to unpruned grid for atomic number  53.
 FoFCou: FMM=F IPFlag=           0 FMFlag=      100000 FMFlg1=        2001
         NFxFlg=           0 DoJE=T BraDBF=F KetDBF=T FulRan=T
         wScrn=  0.000000 ICntrl=       500 IOpCl=  0 I1Cent=   200000004 NGrid=           0
         NMat0=    1 NMatS0=      1 NMatT0=    0 NMatD0=    1 NMtDS0=    0 NMtDT0=    0
 Symmetry not used in FoFCou.
 Harris En= -4645.02226413337    
 JPrj=0 DoOrth=F DoCkMO=F.
 Leave Link  401 at Sat Feb  8 15:00:40 2025, MaxMem=  7247757312 cpu:             446.3 elap:              15.1
 (Enter /ihome/crc/install/gaussian/c01/avx2/tar/g16/l502.exe)
 Two-electron integral symmetry not used.
 Closed shell SCF:
 Using DIIS extrapolation, IDIIS=  1040.
 NGot=  7247757312 LenX=  7223956348 LenY=  7212119308
 Requested convergence on RMS density matrix=1.00D-08 within 128 cycles.
 Requested convergence on MAX density matrix=1.00D-06.
 Requested convergence on             energy=1.00D-06.
 No special actions if energy rises.
 Fock matrices will be formed incrementally for  20 cycles.

 Cycle   1  Pass 1  IDiag  1:
 FoFJK:  IHMeth= 1 ICntrl=       0 DoSepK=F KAlg= 0 I1Cent=           0 FoldK=F
 IRaf= 570000000 NMat=       1 IRICut=       1 DoRegI=T DoRafI=F ISym2E= 0 IDoP0=0 IntGTp=1.
 FoFCou: FMM=T IPFlag=           0 FMFlag=      100000 FMFlg1=        2001
         NFxFlg=           0 DoJE=F BraDBF=F KetDBF=F FulRan=T
         wScrn=  0.000000 ICntrl=         0 IOpCl=  0 I1Cent=           0 NGrid=           0
         NMat0=    1 NMatS0=      1 NMatT0=    0 NMatD0=    1 NMtDS0=    0 NMtDT0=    0
 Symmetry not used in FoFCou.
 FMM levels:  10  Number of levels for PrismC:   9
 Defaulting to unpruned grid for atomic number  53.
 Defaulting to unpruned grid for atomic number  53.
 Defaulting to unpruned grid for atomic number  53.
 Defaulting to unpruned grid for atomic number  53.
 Defaulting to unpruned grid for atomic number  53.
 Defaulting to unpruned grid for atomic number  53.
 Defaulting to unpruned grid for atomic number  53.
 Defaulting to unpruned grid for atomic number  53.
 Defaulting to unpruned grid for atomic number  53.
 Defaulting to unpruned grid for atomic number  53.
 Defaulting to unpruned grid for atomic number  53.
 Defaulting to unpruned grid for atomic number  53.
 Defaulting to unpruned grid for atomic number  53.
 Defaulting to unpruned grid for atomic number  53.
 Defaulting to unpruned grid for atomic number  53.
 Defaulting to unpruned grid for atomic number  53.
 Defaulting to unpruned grid for atomic number  53.
 Defaulting to unpruned grid for atomic number  53.
 Defaulting to unpruned grid for atomic number  53.
 Defaulting to unpruned grid for atomic number  53.
 Defaulting to unpruned grid for atomic number  53.
 Defaulting to unpruned grid for atomic number  53.
 Defaulting to unpruned grid for atomic number  53.
 Defaulting to unpruned grid for atomic number  53.
 Defaulting to unpruned grid for atomic number  53.
 Defaulting to unpruned grid for atomic number  53.
 Defaulting to unpruned grid for atomic number  53.
 Defaulting to unpruned grid for atomic number  53.
 Defaulting to unpruned grid for atomic number  53.
 Defaulting to unpruned grid for atomic number  53.
 Defaulting to unpruned grid for atomic number  53.
 Defaulting to unpruned grid for atomic number  53.
 Inv3:  Mode=1 IEnd=   216291243.
 Iteration    1 A*A^-1 deviation from unit magnitude is 4.00D-15 for   1225.
 Iteration    1 A*A^-1 deviation from orthogonality  is 2.45D-15 for   3896    322.
 Iteration    1 A^-1*A deviation from unit magnitude is 4.66D-15 for   3947.
 Iteration    1 A^-1*A deviation from orthogonality  is 4.28D-13 for   6873   6022.
 E= -4643.11656735011    
 DIIS: error= 1.60D-02 at cycle   1 NSaved=   1.
 NSaved= 1 IEnMin= 1 EnMin= -4643.11656735011     IErMin= 1 ErrMin= 1.60D-02
 ErrMax= 1.60D-02  0.00D+00 EMaxC= 1.00D-01 BMatC= 2.39D+00 BMatP= 2.39D+00
 IDIUse=3 WtCom= 8.40D-01 WtEn= 1.60D-01
 Coeff-Com:  0.100D+01
 Coeff-En:   0.100D+01
 Coeff:      0.100D+01
 Gap=     0.340 Goal=   None    Shift=    0.000
 GapD=    0.340 DampG=1.000 DampE=0.500 DampFc=0.5000 IDamp=-1.
 Damping current iteration by 5.00D-01
 RMSDP=3.00D-03 MaxDP=1.76D+00              OVMax= 2.37D-01

 Cycle   2  Pass 1  IDiag  1:
 RMSU=  1.48D-03    CP:  1.07D+00
 E= -4643.68824038638     Delta-E=       -0.571673036271 Rises=F Damp=T
 DIIS: error= 4.75D-03 at cycle   2 NSaved=   2.
 NSaved= 2 IEnMin= 2 EnMin= -4643.68824038638     IErMin= 2 ErrMin= 4.75D-03
 ErrMax= 4.75D-03  0.00D+00 EMaxC= 1.00D-01 BMatC= 3.30D-01 BMatP= 2.39D+00
 IDIUse=3 WtCom= 9.53D-01 WtEn= 4.75D-02
 Coeff-Com:  0.178D+00 0.822D+00
 Coeff-En:   0.309D+00 0.691D+00
 Coeff:      0.185D+00 0.815D+00
 Gap=     0.077 Goal=   None    Shift=    0.000
 RMSDP=1.21D-03 MaxDP=4.85D-01 DE=-5.72D-01 OVMax= 2.35D-01

 Cycle   3  Pass 1  IDiag  1:
 RMSU=  1.09D-03    CP:  1.05D+00  6.39D-01
 E= -4644.70310219159     Delta-E=       -1.014861805210 Rises=F Damp=F
 DIIS: error= 7.38D-03 at cycle   3 NSaved=   3.
 NSaved= 3 IEnMin= 3 EnMin= -4644.70310219159     IErMin= 2 ErrMin= 4.75D-03
 ErrMax= 7.38D-03  0.00D+00 EMaxC= 1.00D-01 BMatC= 3.59D-01 BMatP= 3.30D-01
 IDIUse=3 WtCom= 9.26D-01 WtEn= 7.38D-02
 Coeff-Com:  0.183D-01 0.510D+00 0.472D+00
 Coeff-En:   0.000D+00 0.000D+00 0.100D+01
 Coeff:      0.169D-01 0.472D+00 0.511D+00
 Gap=     0.133 Goal=   None    Shift=    0.000
 RMSDP=9.72D-04 MaxDP=2.34D-01 DE=-1.01D+00 OVMax= 1.22D-01

 Cycle   4  Pass 1  IDiag  1:
 RMSU=  4.40D-04    CP:  1.02D+00  5.90D-01  2.17D-01
 E= -4644.96393354565     Delta-E=       -0.260831354060 Rises=F Damp=F
 DIIS: error= 3.31D-03 at cycle   4 NSaved=   4.
 NSaved= 4 IEnMin= 4 EnMin= -4644.96393354565     IErMin= 4 ErrMin= 3.31D-03
 ErrMax= 3.31D-03  0.00D+00 EMaxC= 1.00D-01 BMatC= 5.91D-02 BMatP= 3.30D-01
 IDIUse=3 WtCom= 9.67D-01 WtEn= 3.31D-02
 Coeff-Com: -0.134D-01 0.167D+00 0.320D+00 0.526D+00
 Coeff-En:   0.000D+00 0.000D+00 0.168D+00 0.832D+00
 Coeff:     -0.129D-01 0.162D+00 0.315D+00 0.537D+00
 Gap=     0.099 Goal=   None    Shift=    0.000
 RMSDP=3.06D-04 MaxDP=1.38D-01 DE=-2.61D-01 OVMax= 5.78D-02

 Cycle   5  Pass 1  IDiag  1:
 RMSU=  1.30D-04    CP:  1.03D+00  6.09D-01  4.35D-01  6.93D-01
 E= -4645.01277277404     Delta-E=       -0.048839228391 Rises=F Damp=F
 DIIS: error= 6.86D-04 at cycle   5 NSaved=   5.
 NSaved= 5 IEnMin= 5 EnMin= -4645.01277277404     IErMin= 5 ErrMin= 6.86D-04
 ErrMax= 6.86D-04  0.00D+00 EMaxC= 1.00D-01 BMatC= 6.07D-03 BMatP= 5.91D-02
 IDIUse=3 WtCom= 9.93D-01 WtEn= 6.86D-03
 Coeff-Com: -0.105D-01 0.378D-01 0.124D+00 0.321D+00 0.528D+00
 Coeff-En:   0.000D+00 0.000D+00 0.000D+00 0.720D-01 0.928D+00
 Coeff:     -0.105D-01 0.375D-01 0.123D+00 0.319D+00 0.531D+00
 Gap=     0.097 Goal=   None    Shift=    0.000
 RMSDP=6.71D-05 MaxDP=1.71D-02 DE=-4.88D-02 OVMax= 1.73D-02

 Cycle   6  Pass 1  IDiag  1:
 RMSU=  4.27D-05    CP:  1.02D+00  6.06D-01  4.10D-01  7.42D-01  7.06D-01
 E= -4645.01781435945     Delta-E=       -0.005041585411 Rises=F Damp=F
 DIIS: error= 3.80D-04 at cycle   6 NSaved=   6.
 NSaved= 6 IEnMin= 6 EnMin= -4645.01781435945     IErMin= 6 ErrMin= 3.80D-04
 ErrMax= 3.80D-04  0.00D+00 EMaxC= 1.00D-01 BMatC= 9.17D-04 BMatP= 6.07D-03
 IDIUse=3 WtCom= 9.96D-01 WtEn= 3.80D-03
 Coeff-Com: -0.499D-02 0.693D-02 0.423D-01 0.140D+00 0.338D+00 0.478D+00
 Coeff-En:   0.000D+00 0.000D+00 0.000D+00 0.000D+00 0.121D+00 0.879D+00
 Coeff:     -0.497D-02 0.691D-02 0.421D-01 0.139D+00 0.337D+00 0.480D+00
 Gap=     0.096 Goal=   None    Shift=    0.000
 RMSDP=2.12D-05 MaxDP=6.51D-03 DE=-5.04D-03 OVMax= 5.80D-03

 Cycle   7  Pass 1  IDiag  1:
 RMSU=  1.54D-05    CP:  1.03D+00  6.11D-01  4.17D-01  7.35D-01  7.56D-01
                    CP:  8.35D-01
 E= -4645.01861374304     Delta-E=       -0.000799383592 Rises=F Damp=F
 DIIS: error= 1.51D-04 at cycle   7 NSaved=   7.
 NSaved= 7 IEnMin= 7 EnMin= -4645.01861374304     IErMin= 7 ErrMin= 1.51D-04
 ErrMax= 1.51D-04  0.00D+00 EMaxC= 1.00D-01 BMatC= 1.11D-04 BMatP= 9.17D-04
 IDIUse=3 WtCom= 9.98D-01 WtEn= 1.51D-03
 Coeff-Com: -0.166D-02-0.745D-04 0.106D-01 0.454D-01 0.144D+00 0.307D+00
 Coeff-Com:  0.495D+00
 Coeff-En:   0.000D+00 0.000D+00 0.000D+00 0.000D+00 0.000D+00 0.912D-01
 Coeff-En:   0.909D+00
 Coeff:     -0.166D-02-0.744D-04 0.106D-01 0.453D-01 0.144D+00 0.306D+00
 Coeff:      0.496D+00
 Gap=     0.097 Goal=   None    Shift=    0.000
 RMSDP=7.62D-06 MaxDP=3.32D-03 DE=-7.99D-04 OVMax= 1.96D-03

 Cycle   8  Pass 1  IDiag  1:
 RMSU=  5.75D-06    CP:  1.03D+00  6.12D-01  4.17D-01  7.35D-01  7.60D-01
                    CP:  8.05D-01  7.21D-01
 E= -4645.01871250583     Delta-E=       -0.000098762785 Rises=F Damp=F
 DIIS: error= 4.19D-05 at cycle   8 NSaved=   8.
 NSaved= 8 IEnMin= 8 EnMin= -4645.01871250583     IErMin= 8 ErrMin= 4.19D-05
 ErrMax= 4.19D-05  0.00D+00 EMaxC= 1.00D-01 BMatC= 8.78D-06 BMatP= 1.11D-04
 IDIUse=1 WtCom= 1.00D+00 WtEn= 0.00D+00
 Coeff-Com: -0.368D-03-0.785D-03 0.140D-02 0.106D-01 0.466D-01 0.126D+00
 Coeff-Com:  0.281D+00 0.536D+00
 Coeff:     -0.368D-03-0.785D-03 0.140D-02 0.106D-01 0.466D-01 0.126D+00
 Coeff:      0.281D+00 0.536D+00
 Gap=     0.097 Goal=   None    Shift=    0.000
 RMSDP=2.78D-06 MaxDP=7.65D-04 DE=-9.88D-05 OVMax= 7.04D-04

 Cycle   9  Pass 1  IDiag  1:
 RMSU=  1.59D-06    CP:  1.03D+00  6.11D-01  4.15D-01  7.37D-01  7.55D-01
                    CP:  8.11D-01  7.36D-01  8.09D-01
 E= -4645.01871924758     Delta-E=       -0.000006741751 Rises=F Damp=F
 DIIS: error= 1.75D-05 at cycle   9 NSaved=   9.
 NSaved= 9 IEnMin= 9 EnMin= -4645.01871924758     IErMin= 9 ErrMin= 1.75D-05
 ErrMax= 1.75D-05  0.00D+00 EMaxC= 1.00D-01 BMatC= 1.62D-06 BMatP= 8.78D-06
 IDIUse=1 WtCom= 1.00D+00 WtEn= 0.00D+00
 Coeff-Com: -0.227D-04-0.429D-03-0.418D-03 0.823D-03 0.111D-01 0.402D-01
 Coeff-Com:  0.110D+00 0.338D+00 0.501D+00
 Coeff:     -0.227D-04-0.429D-03-0.418D-03 0.823D-03 0.111D-01 0.402D-01
 Coeff:      0.110D+00 0.338D+00 0.501D+00
 Gap=     0.097 Goal=   None    Shift=    0.000
 RMSDP=9.98D-07 MaxDP=5.49D-04 DE=-6.74D-06 OVMax= 3.65D-04

 Cycle  10  Pass 1  IDiag  1:
 RMSU=  6.95D-07    CP:  1.03D+00  6.11D-01  4.16D-01  7.37D-01  7.58D-01
                    CP:  8.16D-01  7.44D-01  7.81D-01  6.95D-01
 E= -4645.01872066312     Delta-E=       -0.000001415541 Rises=F Damp=F
 DIIS: error= 5.68D-06 at cycle  10 NSaved=  10.
 NSaved=10 IEnMin=10 EnMin= -4645.01872066312     IErMin=10 ErrMin= 5.68D-06
 ErrMax= 5.68D-06  0.00D+00 EMaxC= 1.00D-01 BMatC= 2.32D-07 BMatP= 1.62D-06
 IDIUse=1 WtCom= 1.00D+00 WtEn= 0.00D+00
 Coeff-Com:  0.257D-04-0.170D-03-0.450D-03-0.846D-03 0.152D-02 0.111D-01
 Coeff-Com:  0.366D-01 0.152D+00 0.324D+00 0.476D+00
 Coeff:      0.257D-04-0.170D-03-0.450D-03-0.846D-03 0.152D-02 0.111D-01
 Coeff:      0.366D-01 0.152D+00 0.324D+00 0.476D+00
 Gap=     0.097 Goal=   None    Shift=    0.000
 RMSDP=4.97D-07 MaxDP=2.52D-04 DE=-1.42D-06 OVMax= 1.38D-04

 Cycle  11  Pass 1  IDiag  1:
 RMSU=  2.17D-07    CP:  1.03D+00  6.11D-01  4.16D-01  7.37D-01  7.58D-01
                    CP:  8.15D-01  7.42D-01  8.12D-01  7.77D-01  6.56D-01
 E= -4645.01872087835     Delta-E=       -0.000000215230 Rises=F Damp=F
 DIIS: error= 1.40D-06 at cycle  11 NSaved=  11.
 NSaved=11 IEnMin=11 EnMin= -4645.01872087835     IErMin=11 ErrMin= 1.40D-06
 ErrMax= 1.40D-06  0.00D+00 EMaxC= 1.00D-01 BMatC= 2.04D-08 BMatP= 2.32D-07
 IDIUse=1 WtCom= 1.00D+00 WtEn= 0.00D+00
 Coeff-Com:  0.135D-04-0.440D-04-0.215D-03-0.590D-03-0.424D-03 0.177D-02
 Coeff-Com:  0.775D-02 0.459D-01 0.126D+00 0.279D+00 0.541D+00
 Coeff:      0.135D-04-0.440D-04-0.215D-03-0.590D-03-0.424D-03 0.177D-02
 Coeff:      0.775D-02 0.459D-01 0.126D+00 0.279D+00 0.541D+00
 Gap=     0.097 Goal=   None    Shift=    0.000
 RMSDP=1.86D-07 MaxDP=6.53D-05 DE=-2.15D-07 OVMax= 3.40D-05

 Cycle  12  Pass 1  IDiag  1:
 RMSU=  1.02D-07    CP:  1.03D+00  6.11D-01  4.16D-01  7.37D-01  7.58D-01
                    CP:  8.16D-01  7.46D-01  8.20D-01  7.69D-01  6.93D-01
                    CP:  7.16D-01
 E= -4645.01872089677     Delta-E=       -0.000000018417 Rises=F Damp=F
 DIIS: error= 4.98D-07 at cycle  12 NSaved=  12.
 NSaved=12 IEnMin=12 EnMin= -4645.01872089677     IErMin=12 ErrMin= 4.98D-07
 ErrMax= 4.98D-07  0.00D+00 EMaxC= 1.00D-01 BMatC= 2.37D-09 BMatP= 2.04D-08
 IDIUse=1 WtCom= 1.00D+00 WtEn= 0.00D+00
 Coeff-Com:  0.303D-05 0.372D-05-0.668D-04-0.232D-03-0.523D-03-0.615D-03
 Coeff-Com: -0.979D-03 0.421D-02 0.250D-01 0.846D-01 0.297D+00 0.592D+00
 Coeff:      0.303D-05 0.372D-05-0.668D-04-0.232D-03-0.523D-03-0.615D-03
 Coeff:     -0.979D-03 0.421D-02 0.250D-01 0.846D-01 0.297D+00 0.592D+00
 Gap=     0.097 Goal=   None    Shift=    0.000
 RMSDP=8.92D-08 MaxDP=3.04D-05 DE=-1.84D-08 OVMax= 1.57D-05

 Cycle  13  Pass 1  IDiag  1:
 RMSU=  3.42D-08    CP:  1.03D+00  6.11D-01  4.16D-01  7.37D-01  7.58D-01
                    CP:  8.16D-01  7.45D-01  8.18D-01  7.75D-01  7.07D-01
                    CP:  7.59D-01  7.15D-01
 E= -4645.01872089907     Delta-E=       -0.000000002303 Rises=F Damp=F
 DIIS: error= 2.07D-07 at cycle  13 NSaved=  13.
 NSaved=13 IEnMin=13 EnMin= -4645.01872089907     IErMin=13 ErrMin= 2.07D-07
 ErrMax= 2.07D-07  0.00D+00 EMaxC= 1.00D-01 BMatC= 3.14D-10 BMatP= 2.37D-09
 IDIUse=1 WtCom= 1.00D+00 WtEn= 0.00D+00
 Coeff-Com: -0.403D-06 0.722D-05-0.122D-04-0.561D-04-0.247D-03-0.566D-03
 Coeff-Com: -0.156D-02-0.349D-02-0.163D-02 0.108D-01 0.985D-01 0.330D+00
 Coeff-Com:  0.568D+00
 Coeff:     -0.403D-06 0.722D-05-0.122D-04-0.561D-04-0.247D-03-0.566D-03
 Coeff:     -0.156D-02-0.349D-02-0.163D-02 0.108D-01 0.985D-01 0.330D+00
 Coeff:      0.568D+00
 Gap=     0.097 Goal=   None    Shift=    0.000
 RMSDP=2.51D-08 MaxDP=9.17D-06 DE=-2.30D-09 OVMax= 5.20D-06

 Cycle  14  Pass 1  IDiag  1:
 RMSU=  1.18D-08    CP:  1.03D+00  6.11D-01  4.16D-01  7.37D-01  7.58D-01
                    CP:  8.16D-01  7.45D-01  8.19D-01  7.77D-01  7.10D-01
                    CP:  7.83D-01  7.81D-01  7.16D-01
 E= -4645.01872089953     Delta-E=       -0.000000000462 Rises=F Damp=F
 DIIS: error= 1.25D-07 at cycle  14 NSaved=  14.
 NSaved=14 IEnMin=14 EnMin= -4645.01872089953     IErMin=14 ErrMin= 1.25D-07
 ErrMax= 1.25D-07  0.00D+00 EMaxC= 1.00D-01 BMatC= 6.06D-11 BMatP= 3.14D-10
 IDIUse=1 WtCom= 1.00D+00 WtEn= 0.00D+00
 Coeff-Com: -0.718D-06 0.388D-05 0.242D-05 0.664D-06-0.773D-04-0.260D-03
 Coeff-Com: -0.832D-03-0.285D-02-0.488D-02-0.713D-02 0.150D-01 0.115D+00
 Coeff-Com:  0.355D+00 0.531D+00
 Coeff:     -0.718D-06 0.388D-05 0.242D-05 0.664D-06-0.773D-04-0.260D-03
 Coeff:     -0.832D-03-0.285D-02-0.488D-02-0.713D-02 0.150D-01 0.115D+00
 Coeff:      0.355D+00 0.531D+00
 Gap=     0.097 Goal=   None    Shift=    0.000
 RMSDP=7.32D-09 MaxDP=1.89D-06 DE=-4.62D-10 OVMax= 2.24D-06

 Cycle  15  Pass 1  IDiag  1:
 RMSU=  4.25D-09    CP:  1.03D+00  6.11D-01  4.16D-01  7.37D-01  7.58D-01
                    CP:  8.16D-01  7.45D-01  8.19D-01  7.77D-01  7.10D-01
                    CP:  7.85D-01  7.90D-01  8.22D-01  7.56D-01
 E= -4645.01872089949     Delta-E=        0.000000000045 Rises=F Damp=F
 DIIS: error= 6.33D-08 at cycle  15 NSaved=  15.
 NSaved=15 IEnMin=14 EnMin= -4645.01872089953     IErMin=15 ErrMin= 6.33D-08
 ErrMax= 6.33D-08  0.00D+00 EMaxC= 1.00D-01 BMatC= 1.03D-11 BMatP= 6.06D-11
 IDIUse=1 WtCom= 1.00D+00 WtEn= 0.00D+00
 Coeff-Com: -0.329D-06 0.139D-05 0.300D-05 0.745D-05-0.163D-04-0.827D-04
 Coeff-Com: -0.299D-03-0.127D-02-0.277D-02-0.609D-02-0.421D-02 0.264D-01
 Coeff-Com:  0.149D+00 0.343D+00 0.496D+00
 Coeff:     -0.329D-06 0.139D-05 0.300D-05 0.745D-05-0.163D-04-0.827D-04
 Coeff:     -0.299D-03-0.127D-02-0.277D-02-0.609D-02-0.421D-02 0.264D-01
 Coeff:      0.149D+00 0.343D+00 0.496D+00
 Gap=     0.097 Goal=   None    Shift=    0.000
 RMSDP=2.51D-09 MaxDP=6.91D-07 DE= 4.55D-11 OVMax= 8.92D-07

 Error on total polarization charges =  0.08867
 SCF Done:  E(RB3LYP) =  -4645.01872090     A.U. after   15 cycles
            NFock= 15  Conv=0.25D-08     -V/T= 2.0458
 KE= 4.441783384075D+03 PE=-4.116072301802D+04 EE= 1.690709741936D+04
 SMD-CDS (non-electrostatic) energy       (kcal/mol) =     -13.19
 (included in total energy above)
 Leave Link  502 at Sat Feb  8 15:42:50 2025, MaxMem=  7247757312 cpu:           80479.3 elap:            2530.4
 (Enter /ihome/crc/install/gaussian/c01/avx2/tar/g16/l601.exe)
 Copying SCF densities to generalized density rwf, IOpCl= 0 IROHF=0.
 Hyperfine terms turned off by default for NAtoms > 100.

 **********************************************************************

            Population analysis using the SCF Density.

 **********************************************************************

 Alpha  occ. eigenvalues --  -89.03095 -89.03021 -24.72100 -24.71770 -24.71748
 Alpha  occ. eigenvalues --  -24.71688 -24.71342 -24.71332 -24.70843 -19.14011
 Alpha  occ. eigenvalues --  -19.09443 -19.09387 -19.09279 -19.09209 -14.40141
 Alpha  occ. eigenvalues --  -14.34016 -14.28340 -10.42775 -10.42436 -10.29478
 Alpha  occ. eigenvalues --  -10.27579 -10.27190 -10.24492 -10.22596 -10.22514
 Alpha  occ. eigenvalues --  -10.22210 -10.21910 -10.21733 -10.21558 -10.21464
 Alpha  occ. eigenvalues --  -10.21376 -10.21149 -10.21013 -10.20818 -10.20816
 Alpha  occ. eigenvalues --  -10.20695 -10.20648 -10.20617 -10.20561 -10.20502
 Alpha  occ. eigenvalues --  -10.19517 -10.19505 -10.19491 -10.19490 -10.19395
 Alpha  occ. eigenvalues --  -10.19353 -10.19291 -10.19241 -10.19196 -10.19071
 Alpha  occ. eigenvalues --  -10.18908 -10.18833 -10.18832 -10.18760 -10.18742
 Alpha  occ. eigenvalues --  -10.18723 -10.18704 -10.18641 -10.18641 -10.18244
 Alpha  occ. eigenvalues --  -10.18241 -10.18082 -10.18038 -10.17991 -10.17955
 Alpha  occ. eigenvalues --  -10.17954 -10.17910 -10.17897 -10.17863 -10.17859
 Alpha  occ. eigenvalues --  -10.17837 -10.17808 -10.17648 -10.17618 -10.17592
 Alpha  occ. eigenvalues --  -10.17523 -10.17380  -8.07612  -8.07556  -6.85119
 Alpha  occ. eigenvalues --   -6.03926  -6.03878  -6.03855  -6.03821  -6.03784
 Alpha  occ. eigenvalues --   -6.03764  -4.87653  -4.86343  -4.86323  -1.92423
 Alpha  occ. eigenvalues --   -1.92020  -1.92001  -1.90884  -1.90884  -1.32802
 Alpha  occ. eigenvalues --   -1.32451  -1.24843  -1.23772  -1.23418  -1.23401
 Alpha  occ. eigenvalues --   -1.23045  -1.11329  -1.09817  -1.06215  -1.02348
 Alpha  occ. eigenvalues --   -0.98955  -0.98864  -0.96400  -0.90338  -0.88891
 Alpha  occ. eigenvalues --   -0.88857  -0.88353  -0.88252  -0.88143  -0.85866
 Alpha  occ. eigenvalues --   -0.85013  -0.84130  -0.83928  -0.81661  -0.81583
 Alpha  occ. eigenvalues --   -0.79624  -0.79416  -0.79154  -0.78915  -0.78632
 Alpha  occ. eigenvalues --   -0.78414  -0.77059  -0.76631  -0.76473  -0.76395
 Alpha  occ. eigenvalues --   -0.74934  -0.74838  -0.74686  -0.74434  -0.73498
 Alpha  occ. eigenvalues --   -0.72538  -0.71964  -0.71899  -0.70768  -0.70458
 Alpha  occ. eigenvalues --   -0.69065  -0.67798  -0.67754  -0.65871  -0.65793
 Alpha  occ. eigenvalues --   -0.65114  -0.64862  -0.64221  -0.63967  -0.63688
 Alpha  occ. eigenvalues --   -0.63502  -0.63033  -0.62726  -0.62084  -0.61605
 Alpha  occ. eigenvalues --   -0.61332  -0.60518  -0.60270  -0.60070  -0.59962
 Alpha  occ. eigenvalues --   -0.59661  -0.59215  -0.58554  -0.58271  -0.57915
 Alpha  occ. eigenvalues --   -0.57616  -0.56788  -0.55584  -0.55185  -0.55007
 Alpha  occ. eigenvalues --   -0.54586  -0.53665  -0.53134  -0.52571  -0.52017
 Alpha  occ. eigenvalues --   -0.51784  -0.51496  -0.51389  -0.51223  -0.50828
 Alpha  occ. eigenvalues --   -0.50430  -0.49600  -0.49155  -0.48982  -0.48833
 Alpha  occ. eigenvalues --   -0.48541  -0.48356  -0.48254  -0.47961  -0.47934
 Alpha  occ. eigenvalues --   -0.47794  -0.47688  -0.47357  -0.47264  -0.47146
 Alpha  occ. eigenvalues --   -0.47006  -0.46823  -0.46559  -0.46440  -0.45757
 Alpha  occ. eigenvalues --   -0.45704  -0.45515  -0.45397  -0.44941  -0.44857
 Alpha  occ. eigenvalues --   -0.44715  -0.44618  -0.44540  -0.44267  -0.44156
 Alpha  occ. eigenvalues --   -0.44062  -0.43908  -0.43208  -0.43155  -0.42986
 Alpha  occ. eigenvalues --   -0.42941  -0.42913  -0.42765  -0.42522  -0.42373
 Alpha  occ. eigenvalues --   -0.42178  -0.42106  -0.42078  -0.41725  -0.41331
 Alpha  occ. eigenvalues --   -0.41183  -0.40943  -0.40763  -0.40511  -0.40485
 Alpha  occ. eigenvalues --   -0.40184  -0.40075  -0.39637  -0.39189  -0.39119
 Alpha  occ. eigenvalues --   -0.38981  -0.38673  -0.38179  -0.38112  -0.37467
 Alpha  occ. eigenvalues --   -0.37442  -0.37059  -0.36928  -0.36781  -0.36749
 Alpha  occ. eigenvalues --   -0.36668  -0.36254  -0.36239  -0.36146  -0.35960
 Alpha  occ. eigenvalues --   -0.35644  -0.35248  -0.34888  -0.34838  -0.34503
 Alpha  occ. eigenvalues --   -0.34483  -0.34005  -0.33503  -0.33171  -0.32741
 Alpha  occ. eigenvalues --   -0.32296  -0.31872  -0.31610  -0.31252  -0.30998
 Alpha  occ. eigenvalues --   -0.30213  -0.30149  -0.29399  -0.29043  -0.28808
 Alpha  occ. eigenvalues --   -0.28671  -0.28350  -0.27720  -0.27442  -0.27423
 Alpha  occ. eigenvalues --   -0.27296  -0.27066  -0.26921  -0.26700  -0.26565
 Alpha  occ. eigenvalues --   -0.26310  -0.26240  -0.25891  -0.25276  -0.24960
 Alpha  occ. eigenvalues --   -0.24348  -0.24005  -0.23208  -0.21851  -0.21401
 Alpha virt. eigenvalues --   -0.11704  -0.07091  -0.07067  -0.05885  -0.05659
 Alpha virt. eigenvalues --   -0.05134  -0.03649  -0.03386  -0.03121  -0.03075
 Alpha virt. eigenvalues --   -0.02360  -0.01873  -0.01670  -0.01255   0.00426
 Alpha virt. eigenvalues --    0.00521   0.01105   0.03687   0.04175   0.04211
 Alpha virt. eigenvalues --    0.04419   0.04717   0.05162   0.05275   0.05378
 Alpha virt. eigenvalues --    0.05566   0.05992   0.06057   0.06305   0.06343
 Alpha virt. eigenvalues --    0.07028   0.07077   0.07179   0.07217   0.07434
 Alpha virt. eigenvalues --    0.07799   0.07900   0.08389   0.08594   0.08645
 Alpha virt. eigenvalues --    0.08860   0.09072   0.09101   0.09389   0.09598
 Alpha virt. eigenvalues --    0.09635   0.09905   0.10020   0.10108   0.10363
 Alpha virt. eigenvalues --    0.10391   0.10600   0.10641   0.10772   0.10853
 Alpha virt. eigenvalues --    0.11116   0.11282   0.11371   0.11554   0.11662
 Alpha virt. eigenvalues --    0.12013   0.12049   0.12244   0.12403   0.12647
 Alpha virt. eigenvalues --    0.12727   0.12929   0.13089   0.13169   0.13446
 Alpha virt. eigenvalues --    0.13512   0.13700   0.13813   0.13963   0.14122
 Alpha virt. eigenvalues --    0.14253   0.14474   0.14600   0.14747   0.14819
 Alpha virt. eigenvalues --    0.14947   0.15222   0.15241   0.15429   0.15486
 Alpha virt. eigenvalues --    0.15838   0.15974   0.16138   0.16332   0.16452
 Alpha virt. eigenvalues --    0.16742   0.16880   0.17159   0.17367   0.17783
 Alpha virt. eigenvalues --    0.17842   0.17944   0.18161   0.18578   0.18651
 Alpha virt. eigenvalues --    0.18807   0.19017   0.19265   0.19421   0.19435
 Alpha virt. eigenvalues --    0.19538   0.19633   0.19789   0.19963   0.20071
 Alpha virt. eigenvalues --    0.20202   0.20266   0.20397   0.20457   0.20652
 Alpha virt. eigenvalues --    0.20753   0.20900   0.21099   0.21149   0.21263
 Alpha virt. eigenvalues --    0.21378   0.21491   0.21580   0.21692   0.22001
 Alpha virt. eigenvalues --    0.22098   0.22153   0.22209   0.22290   0.22519
 Alpha virt. eigenvalues --    0.22600   0.22904   0.23113   0.23218   0.23405
 Alpha virt. eigenvalues --    0.23585   0.23719   0.23910   0.24088   0.24198
 Alpha virt. eigenvalues --    0.24304   0.24499   0.24708   0.24892   0.25026
 Alpha virt. eigenvalues --    0.25067   0.25237   0.25389   0.25505   0.25530
 Alpha virt. eigenvalues --    0.25726   0.26110   0.26168   0.26299   0.26398
 Alpha virt. eigenvalues --    0.26565   0.26859   0.26951   0.27220   0.27275
 Alpha virt. eigenvalues --    0.27471   0.27574   0.27727   0.27889   0.27992
 Alpha virt. eigenvalues --    0.28200   0.28300   0.28568   0.28713   0.28958
 Alpha virt. eigenvalues --    0.29062   0.29154   0.29251   0.29484   0.29573
 Alpha virt. eigenvalues --    0.29675   0.29754   0.29842   0.29956   0.29994
 Alpha virt. eigenvalues --    0.30247   0.30450   0.30522   0.30778   0.30978
 Alpha virt. eigenvalues --    0.31248   0.31321   0.31417   0.31520   0.31704
 Alpha virt. eigenvalues --    0.31772   0.31884   0.32056   0.32127   0.32317
 Alpha virt. eigenvalues --    0.32417   0.32647   0.32794   0.32858   0.33178
 Alpha virt. eigenvalues --    0.33330   0.33364   0.33444   0.33627   0.33847
 Alpha virt. eigenvalues --    0.34007   0.34058   0.34210   0.34399   0.34610
 Alpha virt. eigenvalues --    0.34705   0.34916   0.35133   0.35159   0.35470
 Alpha virt. eigenvalues --    0.35619   0.35796   0.35928   0.36098   0.36170
 Alpha virt. eigenvalues --    0.36484   0.36597   0.36810   0.36882   0.36972
 Alpha virt. eigenvalues --    0.37134   0.37423   0.37516   0.37637   0.37854
 Alpha virt. eigenvalues --    0.38081   0.38198   0.38306   0.38378   0.38541
 Alpha virt. eigenvalues --    0.38590   0.38765   0.38833   0.38992   0.39157
 Alpha virt. eigenvalues --    0.39221   0.39468   0.39536   0.39695   0.39833
 Alpha virt. eigenvalues --    0.40132   0.40304   0.40538   0.40580   0.40861
 Alpha virt. eigenvalues --    0.41093   0.41216   0.41363   0.41568   0.41640
 Alpha virt. eigenvalues --    0.41751   0.41922   0.42028   0.42171   0.42277
 Alpha virt. eigenvalues --    0.42469   0.42533   0.42569   0.42749   0.42938
 Alpha virt. eigenvalues --    0.43066   0.43124   0.43205   0.43377   0.43521
 Alpha virt. eigenvalues --    0.43770   0.43844   0.44091   0.44130   0.44297
 Alpha virt. eigenvalues --    0.44450   0.44513   0.44620   0.44624   0.44695
 Alpha virt. eigenvalues --    0.45071   0.45254   0.45435   0.45571   0.45649
 Alpha virt. eigenvalues --    0.45693   0.45788   0.45894   0.46019   0.46269
 Alpha virt. eigenvalues --    0.46409   0.46447   0.46745   0.46862   0.47019
 Alpha virt. eigenvalues --    0.47096   0.47327   0.47513   0.47698   0.47843
 Alpha virt. eigenvalues --    0.47899   0.48007   0.48236   0.48266   0.48401
 Alpha virt. eigenvalues --    0.48811   0.48869   0.48970   0.49055   0.49189
 Alpha virt. eigenvalues --    0.49357   0.49500   0.49565   0.49673   0.49941
 Alpha virt. eigenvalues --    0.50070   0.50184   0.50400   0.50570   0.50675
 Alpha virt. eigenvalues --    0.50838   0.50910   0.51000   0.51183   0.51330
 Alpha virt. eigenvalues --    0.51546   0.51789   0.51974   0.52064   0.52242
 Alpha virt. eigenvalues --    0.52534   0.52610   0.52836   0.52968   0.53135
 Alpha virt. eigenvalues --    0.53410   0.53514   0.53658   0.53699   0.53890
 Alpha virt. eigenvalues --    0.54123   0.54275   0.54541   0.54586   0.54679
 Alpha virt. eigenvalues --    0.54974   0.55160   0.55327   0.55683   0.55927
 Alpha virt. eigenvalues --    0.56315   0.56556   0.56700   0.56946   0.57069
 Alpha virt. eigenvalues --    0.57204   0.57297   0.57531   0.57620   0.57875
 Alpha virt. eigenvalues --    0.58235   0.58369   0.58482   0.58704   0.58789
 Alpha virt. eigenvalues --    0.58845   0.59400   0.59494   0.59685   0.59722
 Alpha virt. eigenvalues --    0.59942   0.60004   0.60286   0.60596   0.60800
 Alpha virt. eigenvalues --    0.60997   0.61217   0.61290   0.61581   0.61741
 Alpha virt. eigenvalues --    0.62076   0.62270   0.62392   0.62809   0.62864
 Alpha virt. eigenvalues --    0.63039   0.63066   0.63638   0.63724   0.63976
 Alpha virt. eigenvalues --    0.64271   0.64504   0.64809   0.64821   0.64954
 Alpha virt. eigenvalues --    0.64997   0.65291   0.65349   0.65376   0.65522
 Alpha virt. eigenvalues --    0.65606   0.65810   0.65992   0.66317   0.66406
 Alpha virt. eigenvalues --    0.66739   0.66749   0.66872   0.67122   0.67170
 Alpha virt. eigenvalues --    0.67244   0.67503   0.67621   0.67795   0.67830
 Alpha virt. eigenvalues --    0.67923   0.68143   0.68263   0.68457   0.68506
 Alpha virt. eigenvalues --    0.68696   0.68864   0.68966   0.69079   0.69260
 Alpha virt. eigenvalues --    0.69430   0.69473   0.69634   0.69746   0.69966
 Alpha virt. eigenvalues --    0.70111   0.70252   0.70320   0.70416   0.70780
 Alpha virt. eigenvalues --    0.70968   0.71133   0.71380   0.71649   0.71784
 Alpha virt. eigenvalues --    0.71893   0.72157   0.72444   0.72548   0.72611
 Alpha virt. eigenvalues --    0.72710   0.73005   0.73053   0.73247   0.73433
 Alpha virt. eigenvalues --    0.73514   0.73659   0.73747   0.73844   0.74150
 Alpha virt. eigenvalues --    0.74228   0.74527   0.74813   0.74854   0.75304
 Alpha virt. eigenvalues --    0.75512   0.75699   0.75859   0.76081   0.76263
 Alpha virt. eigenvalues --    0.76356   0.76510   0.76535   0.76594   0.76805
 Alpha virt. eigenvalues --    0.77218   0.77400   0.77556   0.77803   0.77887
 Alpha virt. eigenvalues --    0.78052   0.78174   0.78286   0.78434   0.78551
 Alpha virt. eigenvalues --    0.78630   0.79076   0.79288   0.79346   0.79507
 Alpha virt. eigenvalues --    0.79617   0.79771   0.80241   0.80489   0.80542
 Alpha virt. eigenvalues --    0.80619   0.80704   0.80975   0.81138   0.81413
 Alpha virt. eigenvalues --    0.81536   0.81995   0.82086   0.82141   0.82289
 Alpha virt. eigenvalues --    0.82726   0.82879   0.82935   0.83124   0.83304
 Alpha virt. eigenvalues --    0.83464   0.83607   0.83803   0.84033   0.84108
 Alpha virt. eigenvalues --    0.84497   0.84550   0.84698   0.84930   0.85083
 Alpha virt. eigenvalues --    0.85208   0.85455   0.85530   0.85571   0.85813
 Alpha virt. eigenvalues --    0.85991   0.86199   0.86421   0.86488   0.86690
 Alpha virt. eigenvalues --    0.86914   0.86975   0.87401   0.87591   0.87919
 Alpha virt. eigenvalues --    0.88004   0.88064   0.88173   0.88406   0.88596
 Alpha virt. eigenvalues --    0.88836   0.89080   0.89346   0.89463   0.89482
 Alpha virt. eigenvalues --    0.89679   0.89868   0.89999   0.90287   0.90454
 Alpha virt. eigenvalues --    0.90512   0.90699   0.90842   0.91057   0.91252
 Alpha virt. eigenvalues --    0.91276   0.91558   0.91762   0.91907   0.91966
 Alpha virt. eigenvalues --    0.92165   0.92228   0.92549   0.92674   0.93052
 Alpha virt. eigenvalues --    0.93067   0.93357   0.93564   0.93756   0.93838
 Alpha virt. eigenvalues --    0.93994   0.94079   0.94336   0.94499   0.94770
 Alpha virt. eigenvalues --    0.94901   0.95322   0.95490   0.95611   0.95809
 Alpha virt. eigenvalues --    0.95900   0.96008   0.96136   0.96420   0.96497
 Alpha virt. eigenvalues --    0.96692   0.96847   0.97065   0.97209   0.97372
 Alpha virt. eigenvalues --    0.97420   0.97560   0.97710   0.98014   0.98309
 Alpha virt. eigenvalues --    0.98381   0.98590   0.98695   0.98768   0.98987
 Alpha virt. eigenvalues --    0.99104   0.99203   0.99390   0.99442   0.99727
 Alpha virt. eigenvalues --    0.99856   1.00180   1.00410   1.00745   1.00876
 Alpha virt. eigenvalues --    1.01104   1.01297   1.01525   1.01657   1.01698
 Alpha virt. eigenvalues --    1.02031   1.02125   1.02311   1.02409   1.02607
 Alpha virt. eigenvalues --    1.02994   1.03105   1.03362   1.03606   1.03996
 Alpha virt. eigenvalues --    1.04100   1.04377   1.04508   1.04852   1.05065
 Alpha virt. eigenvalues --    1.05243   1.05438   1.05674   1.05978   1.06159
 Alpha virt. eigenvalues --    1.06269   1.06764   1.06922   1.07155   1.07285
 Alpha virt. eigenvalues --    1.07382   1.07555   1.07702   1.07865   1.08086
 Alpha virt. eigenvalues --    1.08113   1.08444   1.08479   1.08769   1.08858
 Alpha virt. eigenvalues --    1.09296   1.09385   1.09630   1.09963   1.10140
 Alpha virt. eigenvalues --    1.10267   1.10520   1.10760   1.10906   1.10946
 Alpha virt. eigenvalues --    1.11164   1.11441   1.11647   1.11838   1.11857
 Alpha virt. eigenvalues --    1.12170   1.12335   1.12800   1.12920   1.13148
 Alpha virt. eigenvalues --    1.13234   1.13471   1.13515   1.13883   1.14101
 Alpha virt. eigenvalues --    1.14148   1.14263   1.14664   1.14845   1.14944
 Alpha virt. eigenvalues --    1.15193   1.15286   1.15544   1.15786   1.15866
 Alpha virt. eigenvalues --    1.16144   1.16253   1.16583   1.16754   1.16886
 Alpha virt. eigenvalues --    1.16966   1.17176   1.17278   1.17428   1.17605
 Alpha virt. eigenvalues --    1.17763   1.17843   1.18063   1.18416   1.18446
 Alpha virt. eigenvalues --    1.18675   1.18818   1.19144   1.19347   1.19616
 Alpha virt. eigenvalues --    1.19744   1.19905   1.20330   1.20480   1.20693
 Alpha virt. eigenvalues --    1.20820   1.21195   1.21338   1.21574   1.21647
 Alpha virt. eigenvalues --    1.21938   1.22000   1.22227   1.22373   1.22506
 Alpha virt. eigenvalues --    1.22946   1.23304   1.23360   1.23469   1.23961
 Alpha virt. eigenvalues --    1.24025   1.24417   1.24569   1.24750   1.25067
 Alpha virt. eigenvalues --    1.25552   1.25656   1.25879   1.25994   1.26239
 Alpha virt. eigenvalues --    1.26342   1.26448   1.26892   1.26983   1.27151
 Alpha virt. eigenvalues --    1.27304   1.27433   1.27531   1.27730   1.27934
 Alpha virt. eigenvalues --    1.28148   1.28342   1.28485   1.28606   1.28889
 Alpha virt. eigenvalues --    1.29148   1.29392   1.29500   1.29794   1.29871
 Alpha virt. eigenvalues --    1.29992   1.30412   1.30554   1.30752   1.31084
 Alpha virt. eigenvalues --    1.31297   1.31388   1.31519   1.31684   1.31763
 Alpha virt. eigenvalues --    1.31858   1.31993   1.32342   1.32477   1.32571
 Alpha virt. eigenvalues --    1.32850   1.32880   1.33170   1.33199   1.33370
 Alpha virt. eigenvalues --    1.33677   1.33838   1.34068   1.34199   1.34399
 Alpha virt. eigenvalues --    1.34425   1.34618   1.34755   1.35043   1.35238
 Alpha virt. eigenvalues --    1.35385   1.35631   1.35777   1.35947   1.36146
 Alpha virt. eigenvalues --    1.36269   1.36398   1.36561   1.36747   1.36875
 Alpha virt. eigenvalues --    1.37098   1.37160   1.37433   1.37747   1.37823
 Alpha virt. eigenvalues --    1.37966   1.38470   1.38537   1.38675   1.38747
 Alpha virt. eigenvalues --    1.39392   1.39513   1.39807   1.40111   1.40384
 Alpha virt. eigenvalues --    1.40399   1.40466   1.40602   1.40887   1.41019
 Alpha virt. eigenvalues --    1.41304   1.41398   1.41508   1.41652   1.41881
 Alpha virt. eigenvalues --    1.42114   1.42339   1.42609   1.42753   1.43163
 Alpha virt. eigenvalues --    1.43227   1.43369   1.43637   1.43852   1.44122
 Alpha virt. eigenvalues --    1.44294   1.44488   1.44551   1.44920   1.45061
 Alpha virt. eigenvalues --    1.45257   1.45423   1.45485   1.45663   1.45719
 Alpha virt. eigenvalues --    1.45960   1.46085   1.46225   1.46604   1.46860
 Alpha virt. eigenvalues --    1.47099   1.47152   1.47257   1.47672   1.47760
 Alpha virt. eigenvalues --    1.47929   1.48087   1.48459   1.48581   1.48774
 Alpha virt. eigenvalues --    1.49070   1.49156   1.49286   1.49703   1.49947
 Alpha virt. eigenvalues --    1.50108   1.50446   1.50590   1.51011   1.51439
 Alpha virt. eigenvalues --    1.51545   1.51836   1.52030   1.52265   1.52509
 Alpha virt. eigenvalues --    1.52567   1.52649   1.52979   1.53090   1.53312
 Alpha virt. eigenvalues --    1.53441   1.53968   1.54143   1.54216   1.54348
 Alpha virt. eigenvalues --    1.54369   1.54732   1.55186   1.55348   1.55493
 Alpha virt. eigenvalues --    1.55812   1.56058   1.56096   1.56561   1.56677
 Alpha virt. eigenvalues --    1.56773   1.57033   1.57402   1.57521   1.57619
 Alpha virt. eigenvalues --    1.57994   1.58056   1.58203   1.58456   1.58787
 Alpha virt. eigenvalues --    1.58975   1.59239   1.59811   1.59955   1.60166
 Alpha virt. eigenvalues --    1.60266   1.60314   1.60783   1.60950   1.61004
 Alpha virt. eigenvalues --    1.61624   1.61750   1.61869   1.62156   1.62418
 Alpha virt. eigenvalues --    1.62568   1.62807   1.63077   1.63222   1.63678
 Alpha virt. eigenvalues --    1.63878   1.64167   1.64368   1.64541   1.64720
 Alpha virt. eigenvalues --    1.64770   1.65039   1.65358   1.65522   1.65728
 Alpha virt. eigenvalues --    1.65970   1.66062   1.66326   1.66619   1.66689
 Alpha virt. eigenvalues --    1.66804   1.67147   1.67214   1.67395   1.67638
 Alpha virt. eigenvalues --    1.67773   1.68050   1.68353   1.68562   1.68781
 Alpha virt. eigenvalues --    1.68900   1.69159   1.69506   1.69590   1.69708
 Alpha virt. eigenvalues --    1.70164   1.70217   1.70452   1.70589   1.70937
 Alpha virt. eigenvalues --    1.71153   1.71608   1.71682   1.72129   1.72453
 Alpha virt. eigenvalues --    1.72506   1.72627   1.72781   1.72897   1.73374
 Alpha virt. eigenvalues --    1.73580   1.73829   1.74207   1.74395   1.74592
 Alpha virt. eigenvalues --    1.74749   1.74927   1.75400   1.75578   1.75757
 Alpha virt. eigenvalues --    1.76275   1.76327   1.76387   1.76628   1.76905
 Alpha virt. eigenvalues --    1.77028   1.77436   1.77602   1.77885   1.77969
 Alpha virt. eigenvalues --    1.78101   1.78423   1.78501   1.79216   1.79415
 Alpha virt. eigenvalues --    1.79553   1.79709   1.79934   1.80055   1.80760
 Alpha virt. eigenvalues --    1.81041   1.81323   1.81354   1.81536   1.81947
 Alpha virt. eigenvalues --    1.82424   1.82627   1.82800   1.82903   1.83318
 Alpha virt. eigenvalues --    1.83620   1.83779   1.84125   1.84309   1.84424
 Alpha virt. eigenvalues --    1.84610   1.85049   1.85481   1.85622   1.85999
 Alpha virt. eigenvalues --    1.86238   1.86321   1.86512   1.87024   1.87228
 Alpha virt. eigenvalues --    1.87647   1.87834   1.88007   1.88132   1.88252
 Alpha virt. eigenvalues --    1.88722   1.88852   1.89051   1.89218   1.89607
 Alpha virt. eigenvalues --    1.90024   1.90320   1.90664   1.90808   1.91083
 Alpha virt. eigenvalues --    1.91617   1.91803   1.92207   1.92359   1.92923
 Alpha virt. eigenvalues --    1.93012   1.93450   1.93476   1.93830   1.94456
 Alpha virt. eigenvalues --    1.94742   1.95048   1.95324   1.95614   1.95907
 Alpha virt. eigenvalues --    1.96344   1.96377   1.96653   1.96729   1.97158
 Alpha virt. eigenvalues --    1.97241   1.97485   1.97700   1.98139   1.98357
 Alpha virt. eigenvalues --    1.98871   1.99043   1.99322   1.99631   1.99868
 Alpha virt. eigenvalues --    2.00024   2.00420   2.00517   2.00952   2.01242
 Alpha virt. eigenvalues --    2.01486   2.01583   2.02322   2.02371   2.02621
 Alpha virt. eigenvalues --    2.02890   2.03322   2.03676   2.03900   2.04246
 Alpha virt. eigenvalues --    2.04336   2.04482   2.04744   2.05199   2.05339
 Alpha virt. eigenvalues --    2.05602   2.05927   2.06028   2.06364   2.06436
 Alpha virt. eigenvalues --    2.06683   2.07121   2.07257   2.07638   2.07711
 Alpha virt. eigenvalues --    2.08183   2.08293   2.08805   2.09041   2.09238
 Alpha virt. eigenvalues --    2.09340   2.09524   2.09874   2.09958   2.10153
 Alpha virt. eigenvalues --    2.10397   2.10742   2.11167   2.11412   2.11525
 Alpha virt. eigenvalues --    2.11671   2.12147   2.12269   2.12497   2.12654
 Alpha virt. eigenvalues --    2.12886   2.13001   2.13075   2.13451   2.13530
 Alpha virt. eigenvalues --    2.14145   2.14322   2.14913   2.15084   2.15409
 Alpha virt. eigenvalues --    2.15649   2.15810   2.15848   2.16445   2.16708
 Alpha virt. eigenvalues --    2.16719   2.17119   2.17374   2.17949   2.18357
 Alpha virt. eigenvalues --    2.18431   2.18643   2.19314   2.19643   2.19829
 Alpha virt. eigenvalues --    2.20504   2.20583   2.21200   2.21630   2.21780
 Alpha virt. eigenvalues --    2.22068   2.22266   2.22546   2.22950   2.22978
 Alpha virt. eigenvalues --    2.23159   2.23956   2.24206   2.24614   2.24952
 Alpha virt. eigenvalues --    2.25146   2.25665   2.25953   2.26465   2.26671
 Alpha virt. eigenvalues --    2.26837   2.27040   2.27237   2.27699   2.28145
 Alpha virt. eigenvalues --    2.28570   2.28748   2.28869   2.28971   2.29048
 Alpha virt. eigenvalues --    2.29551   2.29853   2.30032   2.30301   2.30773
 Alpha virt. eigenvalues --    2.30991   2.31287   2.31416   2.31682   2.32291
 Alpha virt. eigenvalues --    2.32752   2.32964   2.33319   2.33361   2.33643
 Alpha virt. eigenvalues --    2.34065   2.34373   2.34495   2.34516   2.35012
 Alpha virt. eigenvalues --    2.35555   2.35750   2.35950   2.36262   2.36647
 Alpha virt. eigenvalues --    2.36751   2.37286   2.37491   2.37637   2.37927
 Alpha virt. eigenvalues --    2.38013   2.38216   2.38528   2.38990   2.39047
 Alpha virt. eigenvalues --    2.39407   2.39619   2.39716   2.39853   2.40337
 Alpha virt. eigenvalues --    2.40438   2.40798   2.41016   2.41366   2.41539
 Alpha virt. eigenvalues --    2.41777   2.42194   2.42623   2.42814   2.42920
 Alpha virt. eigenvalues --    2.43079   2.43277   2.43655   2.43884   2.44125
 Alpha virt. eigenvalues --    2.44598   2.44948   2.45235   2.45553   2.45730
 Alpha virt. eigenvalues --    2.45974   2.46280   2.46935   2.47339   2.47985
 Alpha virt. eigenvalues --    2.49149   2.49241   2.49590   2.49818   2.50103
 Alpha virt. eigenvalues --    2.50362   2.51042   2.51140   2.51315   2.51763
 Alpha virt. eigenvalues --    2.52124   2.52462   2.52884   2.53332   2.53661
 Alpha virt. eigenvalues --    2.54076   2.54171   2.54527   2.55334   2.55589
 Alpha virt. eigenvalues --    2.55920   2.55962   2.56254   2.56712   2.56958
 Alpha virt. eigenvalues --    2.57052   2.57250   2.57888   2.58129   2.58419
 Alpha virt. eigenvalues --    2.59024   2.59182   2.59537   2.59833   2.60274
 Alpha virt. eigenvalues --    2.60333   2.60459   2.60986   2.61135   2.61314
 Alpha virt. eigenvalues --    2.61791   2.61967   2.62416   2.62668   2.62995
 Alpha virt. eigenvalues --    2.63409   2.63505   2.63879   2.63950   2.64421
 Alpha virt. eigenvalues --    2.64570   2.64950   2.65154   2.65310   2.65438
 Alpha virt. eigenvalues --    2.65883   2.65984   2.66342   2.66762   2.66951
 Alpha virt. eigenvalues --    2.67347   2.67469   2.67786   2.68122   2.68420
 Alpha virt. eigenvalues --    2.68620   2.69067   2.69435   2.69723   2.69974
 Alpha virt. eigenvalues --    2.70166   2.70763   2.70968   2.71158   2.71315
 Alpha virt. eigenvalues --    2.71386   2.71623   2.71980   2.72127   2.72629
 Alpha virt. eigenvalues --    2.72747   2.72865   2.73134   2.73229   2.73346
 Alpha virt. eigenvalues --    2.73621   2.73722   2.73891   2.74022   2.74243
[...]
 Alpha virt. eigenvalues --    4.53091   4.53551   4.53601   4.54047   4.54138
 Alpha virt. eigenvalues --    4.55037   4.55586   4.55677   4.56293   4.56451
 Alpha virt. eigenvalues --    4.56814   4.57581   4.57847   4.58075   4.58839
 Alpha virt. eigenvalues --    4.59029   4.59893   4.60092   4.60438   4.61138
 Alpha virt. eigenvalues --    4.61574   4.62198   4.62628   4.63121   4.63423
 Alpha virt. eigenvalues --    4.63847   4.64312   4.64460   4.64700   4.65207
 Alpha virt. eigenvalues --    4.65401   4.65470   4.65733   4.65816   4.66444
 Alpha virt. eigenvalues --    4.66483   4.66732   4.66874   4.67077   4.67313
 Alpha virt. eigenvalues --    4.67681   4.68198   4.68365   4.68575   4.68886
 Alpha virt. eigenvalues --    4.68988   4.69308   4.69652   4.69930   4.70265
 Alpha virt. eigenvalues --    4.70548   4.70999   4.71841   4.72363   4.72407
 Alpha virt. eigenvalues --    4.72787   4.72965   4.73333   4.73639   4.73824
 Alpha virt. eigenvalues --    4.74172   4.74545   4.74697   4.75283   4.75412
 Alpha virt. eigenvalues --    4.75607   4.75988   4.76052   4.76214   4.76501
 Alpha virt. eigenvalues --    4.76941   4.77236   4.77426   4.77677   4.78108
 Alpha virt. eigenvalues --    4.78454   4.78630   4.79324   4.79445   4.79967
 Alpha virt. eigenvalues --    4.80216   4.80620   4.80803   4.81035   4.81290
 Alpha virt. eigenvalues --    4.81666   4.82296   4.82753   4.83059   4.83724
 Alpha virt. eigenvalues --    4.84244   4.84645   4.84934   4.86024   4.86688
 Alpha virt. eigenvalues --    4.87005   4.87182   4.87495   4.88002   4.88296
 Alpha virt. eigenvalues --    4.89323   4.89491   4.89854   4.90158   4.90745
 Alpha virt. eigenvalues --    4.91247   4.91508   4.91610   4.91853   4.91960
 Alpha virt. eigenvalues --    4.92492   4.92668   4.92930   4.93568   4.93875
 Alpha virt. eigenvalues --    4.94075   4.94479   4.94768   4.95672   4.95769
 Alpha virt. eigenvalues --    4.97135   4.98762   4.98956   4.99403   4.99748
 Alpha virt. eigenvalues --    5.00695   5.00995   5.01339   5.01701   5.02363
 Alpha virt. eigenvalues --    5.02389   5.02651   5.02783   5.03328   5.03667
 Alpha virt. eigenvalues --    5.04493   5.05267   5.05593   5.05899   5.06552
 Alpha virt. eigenvalues --    5.06832   5.07356   5.07645   5.08305   5.09001
 Alpha virt. eigenvalues --    5.09185   5.09972   5.10110   5.10239   5.10825
 Alpha virt. eigenvalues --    5.11027   5.11347   5.11787   5.12227   5.13006
 Alpha virt. eigenvalues --    5.13058   5.13824   5.14083   5.14541   5.14625
 Alpha virt. eigenvalues --    5.15213   5.15389   5.16147   5.16288   5.16521
 Alpha virt. eigenvalues --    5.16674   5.16844   5.17223   5.17375   5.17974
 Alpha virt. eigenvalues --    5.18641   5.19007   5.19078   5.19317   5.19746
 Alpha virt. eigenvalues --    5.19972   5.20185   5.20461   5.20694   5.20897
 Alpha virt. eigenvalues --    5.21169   5.21723   5.21941   5.22283   5.22464
 Alpha virt. eigenvalues --    5.22782   5.23109   5.23463   5.23706   5.23983
 Alpha virt. eigenvalues --    5.24491   5.24640   5.24794   5.25034   5.25893
 Alpha virt. eigenvalues --    5.25982   5.26368   5.26386   5.26874   5.26922
 Alpha virt. eigenvalues --    5.27217   5.27859   5.28471   5.28778   5.29584
 Alpha virt. eigenvalues --    5.29868   5.30224   5.30355   5.30867   5.31171
 Alpha virt. eigenvalues --    5.31659   5.31829   5.32041   5.32796   5.32972
 Alpha virt. eigenvalues --    5.33140   5.33255   5.33665   5.34190   5.34536
 Alpha virt. eigenvalues --    5.34720   5.35117   5.35385   5.35800   5.35931
 Alpha virt. eigenvalues --    5.36204   5.36509   5.37005   5.37132   5.37793
 Alpha virt. eigenvalues --    5.38260   5.38794   5.38915   5.39344   5.39617
 Alpha virt. eigenvalues --    5.40212   5.40670   5.41265   5.41750   5.42135
 Alpha virt. eigenvalues --    5.42448   5.42965   5.43017   5.43166   5.43464
 Alpha virt. eigenvalues --    5.44588   5.44997   5.45667   5.45792   5.46327
 Alpha virt. eigenvalues --    5.46884   5.47727   5.48011   5.48364   5.48601
 Alpha virt. eigenvalues --    5.48970   5.49782   5.50257   5.50708   5.51630
 Alpha virt. eigenvalues --    5.51819   5.52449   5.52631   5.52894   5.53399
 Alpha virt. eigenvalues --    5.53891   5.54872   5.55391   5.56347   5.56510
 Alpha virt. eigenvalues --    5.57133   5.57384   5.58123   5.58494   5.58856
 Alpha virt. eigenvalues --    5.59238   5.59721   5.59946   5.60040   5.60441
 Alpha virt. eigenvalues --    5.60748   5.61154   5.61808   5.62296   5.62743
 Alpha virt. eigenvalues --    5.62882   5.63224   5.63537   5.63654   5.64315
 Alpha virt. eigenvalues --    5.64502   5.64944   5.65185   5.66205   5.66812
 Alpha virt. eigenvalues --    5.67144   5.68267   5.68959   5.69749   5.70330
 Alpha virt. eigenvalues --    5.70643   5.71398   5.71994   5.72828   5.73210
 Alpha virt. eigenvalues --    5.73753   5.74972   5.75273   5.76484   5.76918
 Alpha virt. eigenvalues --    5.78091   5.78444   5.79543   5.80357   5.80632
 Alpha virt. eigenvalues --    5.81601   5.81790   5.82365   5.82709   5.83955
 Alpha virt. eigenvalues --    5.84695   5.85846   5.86611   5.87419   5.88666
 Alpha virt. eigenvalues --    5.88805   5.91016   5.93890   5.95553   5.95797
 Alpha virt. eigenvalues --    5.97085   5.98031   5.98412   6.01079   6.01713
 Alpha virt. eigenvalues --    6.01790   6.02685   6.03347   6.04160   6.06147
 Alpha virt. eigenvalues --    6.06279   6.07324   6.07471   6.08234   6.11582
 Alpha virt. eigenvalues --    6.12711   6.13001   6.14946   6.15456   6.16708
 Alpha virt. eigenvalues --    6.20574   6.21076   6.23569   6.24988   6.35590
 Alpha virt. eigenvalues --    6.39128   6.41868   6.42823   6.46141   6.46437
 Alpha virt. eigenvalues --    6.47819   6.53707   6.54242   6.56235   6.56511
 Alpha virt. eigenvalues --    6.56697   6.57906   6.61232   6.68759   6.69413
 Alpha virt. eigenvalues --    6.71065   6.74338   6.76670   6.77651   6.78011
 Alpha virt. eigenvalues --    6.78672   6.78961   6.79895   6.82230   6.82493
 Alpha virt. eigenvalues --    6.82681   6.82938   6.83512   6.83792   6.84025
 Alpha virt. eigenvalues --    6.84480   6.84509   6.84727   6.84917   6.85496
 Alpha virt. eigenvalues --    6.85618   6.85694   6.86033   6.86154   6.86400
 Alpha virt. eigenvalues --    6.86701   6.86942   6.86964   6.87734   6.91258
 Alpha virt. eigenvalues --    6.93153   6.95026   6.96839   6.97101   6.97355
 Alpha virt. eigenvalues --    6.97732   6.97910   6.99562   7.00994   7.01126
 Alpha virt. eigenvalues --    7.02555   7.04930   7.05480   7.05717   7.07922
 Alpha virt. eigenvalues --    7.09059   7.09370   7.09865   7.11655   7.13190
 Alpha virt. eigenvalues --    7.13198   7.16528   7.19244   7.22499   7.25210
 Alpha virt. eigenvalues --    7.33692   7.36030   7.36326   7.36403   7.36732
 Alpha virt. eigenvalues --    7.40281   7.43597   7.43624   7.46504   7.48077
 Alpha virt. eigenvalues --    7.48640   7.55369   7.57632   7.58785   7.59010
 Alpha virt. eigenvalues --    7.62565   7.62744   7.65098   7.87422   7.89460
 Alpha virt. eigenvalues --    7.97702   8.06182   8.26671   8.28134   8.29994
 Alpha virt. eigenvalues --    8.30292   8.31068   8.31186   8.36319   8.44996
 Alpha virt. eigenvalues --    8.45372   8.49218   8.49320   8.56580   8.57583
 Alpha virt. eigenvalues --    8.57634   8.67254   8.67370   8.75125   8.75155
 Alpha virt. eigenvalues --    8.76712   8.78494   8.78668   8.88803   8.90363
 Alpha virt. eigenvalues --    8.94704   8.95679   8.98012   9.00005   9.00881
 Alpha virt. eigenvalues --    9.02110   9.04733   9.09490   9.10454   9.16868
 Alpha virt. eigenvalues --    9.16924   9.17156   9.52413   9.57517   9.74184
 Alpha virt. eigenvalues --    9.83197  10.15273  10.18180  22.55633  22.61232
 Alpha virt. eigenvalues --   22.65320  22.69209  22.75273  22.77827  22.85320
 Alpha virt. eigenvalues --   22.88331  22.88479  22.93348  22.95698  23.00210
 Alpha virt. eigenvalues --   23.01545  23.03375  23.05557  23.06247  23.08009
 Alpha virt. eigenvalues --   23.08690  23.08780  23.10114  23.11385  23.13445
 Alpha virt. eigenvalues --   23.14048  23.16185  23.17205  23.18485  23.18695
 Alpha virt. eigenvalues --   23.20065  23.20360  23.21343  23.22239  23.22856
 Alpha virt. eigenvalues --   23.24457  23.25114  23.26666  23.26797  23.27865
 Alpha virt. eigenvalues --   23.29098  23.30081  23.30464  23.33404  23.35002
 Alpha virt. eigenvalues --   23.37971  23.41938  23.43424  23.44206  23.46625
 Alpha virt. eigenvalues --   23.50709  23.55979  23.58947  23.62307  23.67411
 Alpha virt. eigenvalues --   23.79608  23.80841  23.89322  24.11748  24.12916
 Alpha virt. eigenvalues --   24.16659  24.22409  24.27230  24.33879  24.43144
 Alpha virt. eigenvalues --   32.53381  32.78867  33.25566  34.58413  34.60304
 Alpha virt. eigenvalues --   34.91683  42.90077  43.95234  44.00527  44.13551
 Alpha virt. eigenvalues --   44.26173  44.30424  57.10102  57.16108  57.22965
 Alpha virt. eigenvalues --   57.24345  57.47309  57.51165  57.52346 117.84214
          Condensed to atoms (all electrons):
 Mulliken charges:
               1
     1  C    0.169812
     2  C   -0.063468
     3  C    0.031646
     4  C   -0.132659
     5  C    0.290102
     6  N   -0.288391
     7  H    0.142314
     8  C   -0.105779
     9  C    0.167652
    10  C   -0.231236
    11  C   -0.232711
    12  C   -0.086690
    13  H    0.154166
    14  H    0.158773
    15  H    0.147031
    16  C    0.369110
    17  C    0.002961
    18  C   -0.203114
    19  C   -0.213333
    20  C   -0.156716
    21  H    0.148460
    22  C   -0.192468
    23  H    0.224321
    24  C   -0.136768
    25  H    0.152828
    26  H    0.153782
    27  H    0.157689
    28  F   -0.221937
    29  C   -0.270405
    30  H    0.111023
    31  H    0.118494
    32  H    0.105427
    33  C   -0.025666
    34  C   -0.041484
    35  C   -0.012161
    36  H    0.111333
    37  H    0.106800
    38  C   -0.009055
    39  H    0.092851
    40  H    0.117730
    41  H    0.085642
    42  H    0.109575
    43  H    0.082396
    44  H    0.110821
    45  N    0.056124
    46  O   -0.329741
    47  I   -0.034495
    48  H    0.202255
    49  C   -0.133639
    50  C   -0.193398
    51  C   -0.062508
    52  C   -0.054512
    53  C   -0.131245
    54  C   -0.142335
    55  H    0.153796
    56  H    0.160630
    57  C    0.128483
    58  C   -0.083746
    59  H    0.146698
    60  H    0.152670
    61  C   -0.071203
    62  C   -0.074941
    63  H    0.145369
    64  C    0.048051
    65  C   -0.072612
    66  C   -0.052130
    67  C   -0.151893
    68  C   -0.038120
    69  C   -0.192486
    70  C   -0.093534
    71  C   -0.141716
    72  C   -0.138757
    73  H    0.159634
    74  H    0.145016
    75  C   -0.137917
    76  H    0.146169
    77  H    0.154239
    78  H    0.152945
    79  S    0.840414
    80  O   -0.512900
    81  O   -0.520939
    82  S    0.910783
    83  O   -0.513590
    84  O   -0.575495
    85  N   -0.463497
    86  C    0.076946
    87  C    0.135380
    88  C    0.115017
    89  C    0.241039
    90  C   -0.043572
    91  C   -0.197165
    92  C   -0.266702
    93  C   -0.064624
    94  C   -0.079509
    95  H    0.160911
    96  C   -0.180410
    97  H    0.159070
    98  H    0.156441
    99  H    0.154156
   100  C   -0.082934
   101  C   -0.150288
   102  C   -0.175123
   103  C   -0.106215
   104  C   -0.133236
   105  H    0.159129
   106  C   -0.137222
   107  H    0.159833
   108  H    0.157766
   109  H    0.159008
   110  C    0.569320
   111  F   -0.192799
   112  F   -0.191382
   113  F   -0.186264
   114  C    0.559746
   115  F   -0.187252
   116  F   -0.189547
   117  F   -0.184147
 Sum of Mulliken charges =  -0.00000
 Mulliken charges with hydrogens summed into heavy atoms:
               1
     1  C    0.169812
     2  C    0.138787
     3  C    0.031646
     4  C    0.009655
     5  C    0.290102
     6  N   -0.288391
     8  C   -0.105779
     9  C    0.167652
    10  C   -0.077070
    11  C   -0.085680
    12  C    0.072082
    16  C    0.369110
    17  C    0.002961
    18  C   -0.054654
    19  C    0.010988
    20  C   -0.003888
    22  C   -0.038686
    24  C    0.020921
    28  F   -0.221937
    29  C    0.064539
    33  C    0.192466
    34  C    0.169097
    35  C    0.183056
    38  C    0.184162
    45  N    0.056124
    46  O   -0.329741
    47  I   -0.034495
    49  C    0.020157
    50  C   -0.032768
    51  C   -0.062508
    52  C   -0.054512
    53  C    0.015453
    54  C    0.010335
    57  C    0.128483
    58  C    0.061624
    61  C   -0.071203
    62  C   -0.074941
    64  C    0.048051
    65  C   -0.072612
    66  C   -0.052130
    67  C   -0.151893
    68  C   -0.038120
    69  C   -0.032852
    70  C    0.051483
    71  C    0.004454
    72  C    0.015483
    75  C    0.015028
    79  S    0.840414
    80  O   -0.512900
    81  O   -0.520939
    82  S    0.910783
    83  O   -0.513590
    84  O   -0.575495
    85  N   -0.463497
    86  C    0.076946
    87  C    0.135380
    88  C    0.115017
    89  C    0.241039
    90  C   -0.043572
    91  C   -0.197165
    92  C   -0.105790
    93  C    0.094446
    94  C    0.076932
    96  C   -0.026254
   100  C   -0.082934
   101  C   -0.150288
   102  C   -0.015993
   103  C    0.053618
   104  C    0.024530
   106  C    0.021786
   110  C    0.569320
   111  F   -0.192799
   112  F   -0.191382
   113  F   -0.186264
   114  C    0.559746
   115  F   -0.187252
   116  F   -0.189547
   117  F   -0.184147
 Electronic spatial extent (au):  <R**2>=          71561.9530
 Charge=              0.0000 electrons
 Dipole moment (field-independent basis, Debye):
    X=             -9.6635    Y=             -9.6947    Z=             -4.2103  Tot=             14.3212
 Quadrupole moment (field-independent basis, Debye-Ang):
   XX=           -454.2869   YY=           -409.5918   ZZ=           -452.9612
   XY=              7.5467   XZ=             27.6084   YZ=              8.8560
 Traceless Quadrupole moment (field-independent basis, Debye-Ang):
   XX=            -15.3402   YY=             29.3548   ZZ=            -14.0146
   XY=              7.5467   XZ=             27.6084   YZ=              8.8560
 Octapole moment (field-independent basis, Debye-Ang**2):
  XXX=           -504.0019  YYY=             -8.5367  ZZZ=            229.7019  XYY=             40.1158
  XXY=           -306.0601  XXZ=             -9.2599  XZZ=           -149.0092  YZZ=           -180.1531
  YYZ=            110.9090  XYZ=           -187.4023
 Hexadecapole moment (field-independent basis, Debye-Ang**3):
 XXXX=         -51414.9534 YYYY=         -26887.4425 ZZZZ=         -13937.7749 XXXY=          -4049.8672
 XXXZ=          -2328.5743 YYYX=          -3302.4782 YYYZ=          -1670.3669 ZZZX=          -3800.6594
 ZZZY=          -1523.6460 XXYY=         -12576.5889 XXZZ=         -10314.7682 YYZZ=          -6282.4533
 XXYZ=          -1001.6654 YYXZ=          -1360.3800 ZZXY=           -982.2564
 N-N= 1.516682349368D+04 E-N=-4.116072305334D+04  KE= 4.441783384075D+03
 Leave Link  601 at Sat Feb  8 15:42:52 2025, MaxMem=  7247757312 cpu:              17.3 elap:               1.0
 (Enter /ihome/crc/install/gaussian/c01/avx2/tar/g16/l9999.exe)
 Unable to Open any file for archive entry.
 1\1\GINC-SMP-N255\SP\RB3LYP\def2TZVPP\C60H39F7I1N3O5S2\BIM12\08-Feb-20
 25\0\\#p b3lyp def2tzvpp scf=maxcycle=128 nosymm scrf=(smd,solvent=pro
 pylethanoate) empiricaldispersion=gd3bj\\alkyneCF3_R-ax-S_02_rotRR\\0,
 1\C,0,-2.527654,-2.863423,-1.077136\C,0,-1.481025,-3.933116,-1.023942\
 C,0,-0.224259,-3.508274,-0.354656\C,0,-0.248964,-2.418463,0.436553\C,0
 ,-1.501097,-1.697598,0.613099\N,0,-2.542473,-1.860292,-0.27997\H,0,0.6
 59499,-2.05429,0.908855\C,0,-3.62291,-3.030016,-2.067871\C,0,-3.363058
 ,-3.167075,-3.448354\C,0,-4.425589,-3.470012,-4.308433\C,0,-5.993091,-
 3.44253,-2.463351\C,0,-5.722178,-3.616139,-3.818849\H,0,-4.23287,-3.56
 1363,-5.378632\H,0,-6.537973,-3.850757,-4.504391\H,0,-6.997634,-3.5400
 55,-2.050722\C,0,-4.938999,-3.141998,-1.613878\C,0,-1.990575,-2.947327
 ,-3.976844\C,0,-1.450483,-3.799208,-4.951272\C,0,-1.204629,-1.892428,-
 3.484937\C,0,-0.147386,-3.60787,-5.408161\H,0,-2.045936,-4.631662,-5.3
 32231\C,0,0.100101,-1.705185,-3.940269\H,0,-1.601535,-1.1947,-2.745371
 \C,0,0.632092,-2.564871,-4.901878\H,0,0.266081,-4.284294,-6.158263\H,0
 ,0.688643,-0.879605,-3.533328\H,0,1.653495,-2.422531,-5.258819\F,0,-5.
 181657,-3.01552,-0.3077\C,0,1.005356,-4.311348,-0.616105\H,0,0.830805,
 -5.37059,-0.371209\H,0,1.25344,-4.259789,-1.68827\H,0,1.856964,-3.9379
 69,-0.035453\C,0,-2.973605,-0.149469,1.793847\C,0,-0.781071,-0.628964,
 2.711481\C,0,-3.577158,-0.583722,3.124222\H,0,-3.646048,-0.361769,0.96
 1077\H,0,-2.741978,0.92573,1.822886\C,0,-1.477971,-1.038244,4.007969\H
 ,0,0.144831,-1.194504,2.581999\H,0,-0.532821,0.44147,2.723076\H,0,-3.8
 48601,-1.655667,3.068633\H,0,-4.487917,-0.001,3.312397\H,0,-1.650803,-
 2.131897,3.997753\H,0,-0.824486,-0.794362,4.855187\N,0,-1.70413,-0.859
 791,1.598202\O,0,-2.68766,-0.350898,4.184882\I,0,-2.387084,-5.572536,0
 .097299\H,0,-1.30632,-4.396083,-1.999939\C,0,3.202981,5.992164,-2.3452
 88\C,0,2.504677,5.13914,-1.524396\C,0,3.16867,4.080082,-0.842557\C,0,4
 .567158,3.911526,-1.054216\C,0,5.265686,4.816112,-1.902443\C,0,4.59947
 1,5.837431,-2.531384\H,0,2.675475,6.794449,-2.863512\H,0,1.429063,5.26
 8348,-1.403531\C,0,2.482918,3.168041,0.027783\C,0,5.239624,2.834397,-0
 .433592\H,0,6.338453,4.672699,-2.045731\H,0,5.138476,6.526515,-3.18342
 1\C,0,4.568324,1.92478,0.363961\C,0,3.167875,2.108476,0.594253\H,0,6.3
 10986,2.707056,-0.599951\C,0,1.016037,3.393998,0.261517\C,0,0.056091,2
 .532492,-0.238012\C,0,0.619672,4.539765,1.02871\C,0,-1.340119,2.819873
 ,-0.091642\C,0,-0.767462,4.804387,1.210267\C,0,1.561682,5.404502,1.652
 755\C,0,-1.721806,3.942384,0.621512\C,0,-1.174979,5.932646,1.975428\C,
 0,1.139969,6.481405,2.395864\H,0,2.628056,5.201051,1.552125\H,0,-2.784
 113,4.171458,0.725841\C,0,-0.24139,6.755741,2.553779\H,0,-2.243311,6.1
 23011,2.095586\H,0,1.876535,7.129253,2.873617\H,0,-0.558091,7.61782,3.
 142874\S,0,2.180601,0.922258,1.500518\O,0,1.430706,1.695575,2.451692\O
 ,0,3.011816,-0.104911,2.04744\S,0,0.62889,0.954528,-0.864452\O,0,1.589
 839,1.228313,-1.891908\O,0,-0.508599,0.176146,-1.26339\N,0,1.253902,0.
 259777,0.404593\C,0,5.34838,0.854654,0.913455\C,0,6.117013,0.005282,1.
 313034\C,0,-2.395221,2.064295,-0.706046\C,0,-3.383048,1.57186,-1.21160
 6\C,0,-4.511591,0.987892,-1.872817\C,0,-5.817481,1.084312,-1.349173\C,
 0,-4.326738,0.339117,-3.10491\C,0,-6.898087,0.539552,-2.037976\C,0,-5.
 41362,-0.185729,-3.797303\H,0,-3.319328,0.27442,-3.518654\C,0,-6.69852
 1,-0.093172,-3.264165\H,0,-7.901026,0.62262,-1.619362\H,0,-5.253053,-0
 .669278,-4.761892\H,0,-7.550463,-0.509585,-3.803588\C,0,6.973317,-1.02
 734,1.813526\C,0,8.340536,-1.087011,1.474249\C,0,6.444133,-2.00975,2.6
 64566\C,0,9.1492,-2.101992,1.976328\C,0,7.25856,-3.022314,3.16364\H,0,
 5.385841,-1.959585,2.92315\C,0,8.609367,-3.071093,2.822167\H,0,10.2045
 44,-2.135112,1.705395\H,0,6.833692,-3.778842,3.825135\H,0,9.248025,-3.
 864064,3.213145\C,0,8.922276,-0.039521,0.560199\F,0,8.800045,1.191918,
 1.067727\F,0,8.317634,-0.023751,-0.6323\F,0,10.222533,-0.240813,0.3354
 09\C,0,-6.050638,1.807978,-0.048633\F,0,-5.62651,3.075167,-0.096081\F,
 0,-5.406924,1.229738,0.975997\F,0,-7.342607,1.840789,0.280023\\Version
 =ES64L-G16RevC.01\HF=-4645.0187209\RMSD=2.514e-09\Dipole=-3.8018984,-3
 .8142025,-1.6564791\Quadrupole=-11.4050976,21.8245902,-10.4194926,5.61
 07768,20.5261971,6.5841924\PG=C01 [X(C60H39F7I1N3O5S2)]\\@
 The archive entry for this job was punched.


 NEVER TEACH A PIG TO SING.
 IT WASTES YOUR TIME AND ANNOYS THE PIG.
     -- SEEN ON A GREETING CARD
 Job cpu time:       0 days 22 hours 36 minutes 55.4 seconds.
 Elapsed time:       0 days  0 hours 42 minutes 42.6 seconds.
 File lengths (MBytes):  RWF=   5944 Int=      0 D2E=      0 Chk=    522 Scr=      1
 Normal termination of Gaussian 16 at Sat Feb  8 15:42:54 2025.
