 Entering Gaussian System, Link 0=g16
 Initial command:
 /opt/packages/gaussian/g16RevC.01/g16/l1.exe "/local/Gau-75850.inp" -scrdir="/local/"
 Entering Link 1 = /opt/packages/gaussian/g16RevC.01/g16/l1.exe PID=     75851.
  
 Copyright (c) 1988-2019, Gaussian, Inc.  All Rights Reserved.
  
 This is part of the Gaussian(R) 16 program.  It is based on
 the Gaussian(R) 09 system (copyright 2009, Gaussian, Inc.),
 the Gaussian(R) 03 system (copyright 2003, Gaussian, Inc.),
 the Gaussian(R) 98 system (copyright 1998, Gaussian, Inc.),
 the Gaussian(R) 94 system (copyright 1995, Gaussian, Inc.),
 the Gaussian 92(TM) system (copyright 1992, Gaussian, Inc.),
 the Gaussian 90(TM) system (copyright 1990, Gaussian, Inc.),
 the Gaussian 88(TM) system (copyright 1988, Gaussian, Inc.),
 the Gaussian 86(TM) system (copyright 1986, Carnegie Mellon
 University), and the Gaussian 82(TM) system (copyright 1983,
 Carnegie Mellon University). Gaussian is a federally registered
 trademark of Gaussian, Inc.
  
 This software contains proprietary and confidential information,
 including trade secrets, belonging to Gaussian, Inc.
  
 This software is provided under written license and may be
 used, copied, transmitted, or stored only in accord with that
 written license.
  
 The following legend is applicable only to US Government
 contracts under FAR:
  
                    RESTRICTED RIGHTS LEGEND
  
 Use, reproduction and disclosure by the US Government is
 subject to restrictions as set forth in subparagraphs (a)
 and (c) of the Commercial Computer Software - Restricted
 Rights clause in FAR 52.227-19.
  
 Gaussian, Inc.
 340 Quinnipiac St., Bldg. 40, Wallingford CT 06492
  
  
 ---------------------------------------------------------------
 Warning -- This program may not be used in any manner that
 competes with the business of Gaussian, Inc. or will provide
 assistance to any competitor of Gaussian, Inc.  The licensee
 of this program is prohibited from giving any competitor of
 Gaussian, Inc. access to this program.  By using this program,
 the user acknowledges that Gaussian, Inc. is engaged in the
 business of creating and licensing software in the field of
 computational chemistry and represents and warrants to the
 licensee that it is not a competitor of Gaussian, Inc. and that
 it will not use this program in any manner prohibited above.
 ---------------------------------------------------------------
  

 Cite this work as:
 Gaussian 16, Revision C.01,
 M. J. Frisch, G. W. Trucks, H. B. Schlegel, G. E. Scuseria, 
 M. A. Robb, J. R. Cheeseman, G. Scalmani, V. Barone, 
 G. A. Petersson, H. Nakatsuji, X. Li, M. Caricato, A. V. Marenich, 
 J. Bloino, B. G. Janesko, R. Gomperts, B. Mennucci, H. P. Hratchian, 
 J. V. Ortiz, A. F. Izmaylov, J. L. Sonnenberg, D. Williams-Young, 
 F. Ding, F. Lipparini, F. Egidi, J. Goings, B. Peng, A. Petrone, 
 T. Henderson, D. Ranasinghe, V. G. Zakrzewski, J. Gao, N. Rega, 
 G. Zheng, W. Liang, M. Hada, M. Ehara, K. Toyota, R. Fukuda, 
 J. Hasegawa, M. Ishida, T. Nakajima, Y. Honda, O. Kitao, H. Nakai, 
 T. Vreven, K. Throssell, J. A. Montgomery, Jr., J. E. Peralta, 
 F. Ogliaro, M. J. Bearpark, J. J. Heyd, E. N. Brothers, K. N. Kudin, 
 V. N. Staroverov, T. A. Keith, R. Kobayashi, J. Normand, 
 K. Raghavachari, A. P. Rendell, J. C. Burant, S. S. Iyengar, 
 J. Tomasi, M. Cossi, J. M. Millam, M. Klene, C. Adamo, R. Cammi, 
 J. W. Ochterski, R. L. Martin, K. Morokuma, O. Farkas, 
 J. B. Foresman, and D. J. Fox, Gaussian, Inc., Wallingford CT, 2019.
 
 ******************************************
 Gaussian 16:  ES64L-G16RevC.01  3-Jul-2019
                12-Jun-2024 
 ******************************************
 %nprocshared=32
 Will use up to   32 processors via shared memory.
 %mem=64GB
 ----------------------------------------------------------------------
 #p b3lyp def2tzvpp scf=maxcycle=128 nosymm scrf=(smd,solvent=propyleth
 anoate) empiricaldispersion=gd3bj
 ----------------------------------------------------------------------
 1/38=1,172=1/1;
 2/12=2,15=1,17=6,18=5,40=1/2;
 3/5=44,7=202,11=2,25=1,30=1,70=32201,72=169,74=-5,124=41/1,2,3;
 4//1;
 5/5=2,7=128,38=5,53=169/2;
 6/7=2,8=2,9=2,10=2,28=1/1;
 99/5=1,9=1/99;
 Leave Link    1 at Wed Jun 12 02:59:15 2024, MaxMem=  8589934592 cpu:               1.0 elap:               0.0
 (Enter /opt/packages/gaussian/g16RevC.01/g16/l101.exe)
 -------------------
 Title Card Required
 -------------------
 Symbolic Z-matrix:
 Charge =  0 Multiplicity = 1
 C                    -1.9387   -2.30115   0.12763 
 C                    -0.67598  -2.82876   0.74099 
 C                    -0.2578   -2.16534   1.99981 
 C                    -0.99993  -1.15661   2.50337 
 C                    -2.23426  -0.78408   1.85278 
 N                    -2.64472  -1.3833    0.68692 
 H                    -0.64413  -0.63424   3.38628 
 C                    -2.43801  -2.87226  -1.15477 
 C                    -3.82175  -3.02899  -1.42195 
 C                    -4.23193  -3.50668  -2.672 
 C                    -1.95164  -3.68845  -3.41997 
 C                    -3.31219  -3.82442  -3.66722 
 H                    -5.29885  -3.64083  -2.85567 
 H                    -3.65603  -4.19254  -4.63508 
 H                    -1.19061  -3.93304  -4.16107 
 C                    -1.54298  -3.2382   -2.17385 
 C                    -4.89665  -2.75657  -0.42535 
 C                    -5.97757  -1.9466   -0.79019 
 C                    -4.89132  -3.3511    0.84451 
 C                    -7.02153  -1.70698   0.10593 
 H                    -5.9935   -1.4941   -1.78395 
 C                    -5.93716  -3.12139   1.73376 
 H                    -4.0609   -4.003     1.12917 
 C                    -7.00377  -2.2932    1.36962 
 H                    -7.84952  -1.05976  -0.18982 
 H                    -5.92514  -3.59568   2.71697 
 H                    -7.81973  -2.11103   2.07149 
 F                    -0.22778  -3.16664  -1.96953 
 C                     1.00309  -2.61972   2.65405 
 H                     0.81166  -3.53871   3.23061 
 H                     1.76778  -2.84516   1.89824 
 H                     1.38934  -1.84368   3.32468 
 C                    -4.33209   0.48166   1.73634 
 C                    -2.74204   0.98817   3.49915 
 C                    -5.40471   0.40252   2.81639 
 H                    -4.54615  -0.20163   0.90867 
 H                    -4.26958   1.50997   1.35034 
 C                    -3.88974   0.88322   4.49675 
 H                    -1.79538   0.71523   3.96816 
 H                    -2.66583   2.02647   3.14042 
 H                    -5.50313  -0.64369   3.16019 
 H                    -6.36439   0.7238    2.39112 
 H                    -3.94031  -0.14925   4.89217 
 H                    -3.70274   1.56946   5.33265 
 N                    -3.02825   0.15565   2.32832 
 O                    -5.10614   1.24514   3.90161 
 I                    -0.95192  -4.95651   1.07875 
 H                     0.15456  -2.79118   0.02641 
 C                     2.67047   5.80503  -1.80302 
 C                     2.11461   4.74923  -1.12051 
 C                     2.91229   3.63898  -0.72084 
 C                     4.2919    3.63927  -1.0764 
 C                     4.84232   4.7517   -1.77287 
 C                     4.0504    5.81532  -2.12468 
 H                     2.0398    6.64231  -2.10595 
 H                     1.0479    4.7584   -0.89776 
 C                     2.38226   2.51345  -0.00124 
 C                     5.09431   2.52143  -0.75406 
 H                     5.90382   4.73246  -2.02733 
 H                     4.47562   6.66416  -2.66236 
 C                     4.56903   1.41284  -0.11543 
 C                     3.18948   1.42615   0.2673 
 H                     6.14963   2.52397  -1.0332 
 C                     0.93171   2.57292   0.38098 
 C                    -0.01525   1.77077  -0.22861 
 C                     0.52361   3.55238   1.34701 
 C                    -1.41474   2.05346  -0.07724 
 C                    -0.8649    3.78191   1.55785 
 C                     1.46065   4.28892   2.12301 
 C                    -1.80779   3.05693   0.79087 
 C                    -1.28002   4.74953   2.51484 
 C                     1.03204   5.20591   3.05361 
 H                     2.52765   4.10621   1.98953 
 H                    -2.86759   3.31056   0.86889 
 C                    -0.35114   5.44556   3.24846 
 H                    -2.34935   4.92319   2.65442 
 H                     1.76365   5.75284   3.65027 
 H                    -0.67384   6.18303   3.98499 
 S                     2.39017   0.01309   1.01438 
 O                     1.71558   0.52222   2.17694 
 O                     3.36361  -1.00718   1.25171 
 S                     0.5732    0.33659  -1.13826 
 O                     1.39927   0.83642  -2.19503 
 O                    -0.56908  -0.44072  -1.52311 
 N                     1.37502  -0.51175  -0.07685 
 C                     5.47069   0.32351   0.12059 
 C                     6.33168  -0.52083   0.25261 
 C                    -2.43994   1.46444  -0.88953 
 C                    -3.37041   1.13177  -1.595 
 C                    -4.37641   0.70412  -2.51941 
 C                    -5.70002   1.1928   -2.49012 
 C                    -4.02207  -0.22351  -3.51168 
 C                    -6.63363   0.76073  -3.42741 
 C                    -4.96001  -0.64707  -4.4497 
 H                    -2.99958  -0.60713  -3.52518 
 C                    -6.26489  -0.15834  -4.41085 
 H                    -7.6527    1.14593  -3.39116 
 H                    -4.66664  -1.3671   -5.21546 
 H                    -6.99999  -0.48899  -5.1455 
 C                     7.29458  -1.56459   0.43479 
 C                     8.64656  -1.40039   0.07059 
 C                     6.88695  -2.78797   0.98869 
 C                     9.55906  -2.43416   0.25719 
 C                     7.80464  -3.81828   1.17265 
 H                     5.8396   -2.90973   1.26752 
 C                     9.13924  -3.64488   0.80842 
 H                     10.60114  -2.29249  -0.0296 
 H                     7.4733   -4.76436   1.60337 
 H                     9.8586   -4.45208   0.95171 
 C                     9.0976   -0.09166  -0.52472 
 F                     8.88403   0.93563   0.30481 
 F                     8.4503    0.19272  -1.65974 
 F                     10.40159  -0.09701  -0.81046 
 C                    -6.13037   2.14216  -1.40434 
 F                    -5.3091    3.18624  -1.27451 
 F                    -6.16728   1.533    -0.2069 
 F                    -7.35318   2.62911  -1.6203 
 
 ITRead=  0  0  0  0  0  0  0  0  0  0  0  0  0  0  0  0  0  0  0  0
 ITRead=  0  0  0  0  0  0  0  0  0  0  0  0  0  0  0  0  0  0  0  0
 ITRead=  0  0  0  0  0  0  0  0  0  0  0  0  0  0  0  0  0  0  0  0
 ITRead=  0  0  0  0  0  0  0  0  0  0  0  0  0  0  0  0  0  0  0  0
 ITRead=  0  0  0  0  0  0  0  0  0  0  0  0  0  0  0  0  0  0  0  0
 ITRead=  0  0  0  0  0  0  0  0  0  0  0  0  0  0  0  0  0
 MicOpt= -1 -1 -1 -1 -1 -1 -1 -1 -1 -1 -1 -1 -1 -1 -1 -1 -1 -1 -1 -1
 MicOpt= -1 -1 -1 -1 -1 -1 -1 -1 -1 -1 -1 -1 -1 -1 -1 -1 -1 -1 -1 -1
 MicOpt= -1 -1 -1 -1 -1 -1 -1 -1 -1 -1 -1 -1 -1 -1 -1 -1 -1 -1 -1 -1
 MicOpt= -1 -1 -1 -1 -1 -1 -1 -1 -1 -1 -1 -1 -1 -1 -1 -1 -1 -1 -1 -1
 MicOpt= -1 -1 -1 -1 -1 -1 -1 -1 -1 -1 -1 -1 -1 -1 -1 -1 -1 -1 -1 -1
 MicOpt= -1 -1 -1 -1 -1 -1 -1 -1 -1 -1 -1 -1 -1 -1 -1 -1 -1
 NAtoms=    117 NQM=      117 NQMF=       0 NMMI=      0 NMMIF=      0
                NMic=       0 NMicF=      0.
                    Isotopes and Nuclear Properties:
 (Nuclear quadrupole moments (NQMom) in fm**2, nuclear magnetic moments (NMagM)
  in nuclear magnetons)

  Atom         1           2           3           4           5           6           7           8           9          10
 IAtWgt=          12          12          12          12          12          14           1          12          12          12
 AtmWgt=  12.0000000  12.0000000  12.0000000  12.0000000  12.0000000  14.0030740   1.0078250  12.0000000  12.0000000  12.0000000
 NucSpn=           0           0           0           0           0           2           1           0           0           0
 AtZEff=   0.0000000   0.0000000   0.0000000   0.0000000   0.0000000   0.0000000   0.0000000   0.0000000   0.0000000   0.0000000
 NQMom=    0.0000000   0.0000000   0.0000000   0.0000000   0.0000000   2.0440000   0.0000000   0.0000000   0.0000000   0.0000000
 NMagM=    0.0000000   0.0000000   0.0000000   0.0000000   0.0000000   0.4037610   2.7928460   0.0000000   0.0000000   0.0000000
 AtZNuc=   6.0000000   6.0000000   6.0000000   6.0000000   6.0000000   7.0000000   1.0000000   6.0000000   6.0000000   6.0000000

  Atom        11          12          13          14          15          16          17          18          19          20
 IAtWgt=          12          12           1           1           1          12          12          12          12          12
 AtmWgt=  12.0000000  12.0000000   1.0078250   1.0078250   1.0078250  12.0000000  12.0000000  12.0000000  12.0000000  12.0000000
 NucSpn=           0           0           1           1           1           0           0           0           0           0
 AtZEff=   0.0000000   0.0000000   0.0000000   0.0000000   0.0000000   0.0000000   0.0000000   0.0000000   0.0000000   0.0000000
 NQMom=    0.0000000   0.0000000   0.0000000   0.0000000   0.0000000   0.0000000   0.0000000   0.0000000   0.0000000   0.0000000
 NMagM=    0.0000000   0.0000000   2.7928460   2.7928460   2.7928460   0.0000000   0.0000000   0.0000000   0.0000000   0.0000000
 AtZNuc=   6.0000000   6.0000000   1.0000000   1.0000000   1.0000000   6.0000000   6.0000000   6.0000000   6.0000000   6.0000000

  Atom        21          22          23          24          25          26          27          28          29          30
 IAtWgt=           1          12           1          12           1           1           1          19          12           1
 AtmWgt=   1.0078250  12.0000000   1.0078250  12.0000000   1.0078250   1.0078250   1.0078250  18.9984032  12.0000000   1.0078250
 NucSpn=           1           0           1           0           1           1           1           1           0           1
 AtZEff=   0.0000000   0.0000000   0.0000000   0.0000000   0.0000000   0.0000000   0.0000000   0.0000000   0.0000000   0.0000000
 NQMom=    0.0000000   0.0000000   0.0000000   0.0000000   0.0000000   0.0000000   0.0000000   0.0000000   0.0000000   0.0000000
 NMagM=    2.7928460   0.0000000   2.7928460   0.0000000   2.7928460   2.7928460   2.7928460   2.6288670   0.0000000   2.7928460
 AtZNuc=   1.0000000   6.0000000   1.0000000   6.0000000   1.0000000   1.0000000   1.0000000   9.0000000   6.0000000   1.0000000

  Atom        31          32          33          34          35          36          37          38          39          40
 IAtWgt=           1           1          12          12          12           1           1          12           1           1
 AtmWgt=   1.0078250   1.0078250  12.0000000  12.0000000  12.0000000   1.0078250   1.0078250  12.0000000   1.0078250   1.0078250
 NucSpn=           1           1           0           0           0           1           1           0           1           1
 AtZEff=   0.0000000   0.0000000   0.0000000   0.0000000   0.0000000   0.0000000   0.0000000   0.0000000   0.0000000   0.0000000
 NQMom=    0.0000000   0.0000000   0.0000000   0.0000000   0.0000000   0.0000000   0.0000000   0.0000000   0.0000000   0.0000000
 NMagM=    2.7928460   2.7928460   0.0000000   0.0000000   0.0000000   2.7928460   2.7928460   0.0000000   2.7928460   2.7928460
 AtZNuc=   1.0000000   1.0000000   6.0000000   6.0000000   6.0000000   1.0000000   1.0000000   6.0000000   1.0000000   1.0000000

  Atom        41          42          43          44          45          46          47          48          49          50
 IAtWgt=           1           1           1           1          14          16         127           1          12          12
 AtmWgt=   1.0078250   1.0078250   1.0078250   1.0078250  14.0030740  15.9949146 126.9004000   1.0078250  12.0000000  12.0000000
 NucSpn=           1           1           1           1           2           0           5           1           0           0
 AtZEff=   0.0000000   0.0000000   0.0000000   0.0000000   0.0000000   0.0000000   0.0000000   0.0000000   0.0000000   0.0000000
 NQMom=    0.0000000   0.0000000   0.0000000   0.0000000   2.0440000   0.0000000 -71.0000000   0.0000000   0.0000000   0.0000000
 NMagM=    2.7928460   2.7928460   2.7928460   2.7928460   0.4037610   0.0000000   2.8132800   2.7928460   0.0000000   0.0000000
 AtZNuc=   1.0000000   1.0000000   1.0000000   1.0000000   7.0000000   8.0000000  53.0000000   1.0000000   6.0000000   6.0000000

  Atom        51          52          53          54          55          56          57          58          59          60
 IAtWgt=          12          12          12          12           1           1          12          12           1           1
 AtmWgt=  12.0000000  12.0000000  12.0000000  12.0000000   1.0078250   1.0078250  12.0000000  12.0000000   1.0078250   1.0078250
 NucSpn=           0           0           0           0           1           1           0           0           1           1
 AtZEff=   0.0000000   0.0000000   0.0000000   0.0000000   0.0000000   0.0000000   0.0000000   0.0000000   0.0000000   0.0000000
 NQMom=    0.0000000   0.0000000   0.0000000   0.0000000   0.0000000   0.0000000   0.0000000   0.0000000   0.0000000   0.0000000
 NMagM=    0.0000000   0.0000000   0.0000000   0.0000000   2.7928460   2.7928460   0.0000000   0.0000000   2.7928460   2.7928460
 AtZNuc=   6.0000000   6.0000000   6.0000000   6.0000000   1.0000000   1.0000000   6.0000000   6.0000000   1.0000000   1.0000000

  Atom        61          62          63          64          65          66          67          68          69          70
 IAtWgt=          12          12           1          12          12          12          12          12          12          12
 AtmWgt=  12.0000000  12.0000000   1.0078250  12.0000000  12.0000000  12.0000000  12.0000000  12.0000000  12.0000000  12.0000000
 NucSpn=           0           0           1           0           0           0           0           0           0           0
 AtZEff=   0.0000000   0.0000000   0.0000000   0.0000000   0.0000000   0.0000000   0.0000000   0.0000000   0.0000000   0.0000000
 NQMom=    0.0000000   0.0000000   0.0000000   0.0000000   0.0000000   0.0000000   0.0000000   0.0000000   0.0000000   0.0000000
 NMagM=    0.0000000   0.0000000   2.7928460   0.0000000   0.0000000   0.0000000   0.0000000   0.0000000   0.0000000   0.0000000
 AtZNuc=   6.0000000   6.0000000   1.0000000   6.0000000   6.0000000   6.0000000   6.0000000   6.0000000   6.0000000   6.0000000

  Atom        71          72          73          74          75          76          77          78          79          80
 IAtWgt=          12          12           1           1          12           1           1           1          32          16
 AtmWgt=  12.0000000  12.0000000   1.0078250   1.0078250  12.0000000   1.0078250   1.0078250   1.0078250  31.9720718  15.9949146
 NucSpn=           0           0           1           1           0           1           1           1           0           0
 AtZEff=   0.0000000   0.0000000   0.0000000   0.0000000   0.0000000   0.0000000   0.0000000   0.0000000   0.0000000   0.0000000
 NQMom=    0.0000000   0.0000000   0.0000000   0.0000000   0.0000000   0.0000000   0.0000000   0.0000000   0.0000000   0.0000000
 NMagM=    0.0000000   0.0000000   2.7928460   2.7928460   0.0000000   2.7928460   2.7928460   2.7928460   0.0000000   0.0000000
 AtZNuc=   6.0000000   6.0000000   1.0000000   1.0000000   6.0000000   1.0000000   1.0000000   1.0000000  16.0000000   8.0000000

  Atom        81          82          83          84          85          86          87          88          89          90
 IAtWgt=          16          32          16          16          14          12          12          12          12          12
 AtmWgt=  15.9949146  31.9720718  15.9949146  15.9949146  14.0030740  12.0000000  12.0000000  12.0000000  12.0000000  12.0000000
 NucSpn=           0           0           0           0           2           0           0           0           0           0
 AtZEff=   0.0000000   0.0000000   0.0000000   0.0000000   0.0000000   0.0000000   0.0000000   0.0000000   0.0000000   0.0000000
 NQMom=    0.0000000   0.0000000   0.0000000   0.0000000   2.0440000   0.0000000   0.0000000   0.0000000   0.0000000   0.0000000
 NMagM=    0.0000000   0.0000000   0.0000000   0.0000000   0.4037610   0.0000000   0.0000000   0.0000000   0.0000000   0.0000000
 AtZNuc=   8.0000000  16.0000000   8.0000000   8.0000000   7.0000000   6.0000000   6.0000000   6.0000000   6.0000000   6.0000000

  Atom        91          92          93          94          95          96          97          98          99         100
 IAtWgt=          12          12          12          12           1          12           1           1           1          12
 AtmWgt=  12.0000000  12.0000000  12.0000000  12.0000000   1.0078250  12.0000000   1.0078250   1.0078250   1.0078250  12.0000000
 NucSpn=           0           0           0           0           1           0           1           1           1           0
 AtZEff=   0.0000000   0.0000000   0.0000000   0.0000000   0.0000000   0.0000000   0.0000000   0.0000000   0.0000000   0.0000000
 NQMom=    0.0000000   0.0000000   0.0000000   0.0000000   0.0000000   0.0000000   0.0000000   0.0000000   0.0000000   0.0000000
 NMagM=    0.0000000   0.0000000   0.0000000   0.0000000   2.7928460   0.0000000   2.7928460   2.7928460   2.7928460   0.0000000
 AtZNuc=   6.0000000   6.0000000   6.0000000   6.0000000   1.0000000   6.0000000   1.0000000   1.0000000   1.0000000   6.0000000

  Atom       101         102         103         104         105         106         107         108         109         110
 IAtWgt=          12          12          12          12           1          12           1           1           1          12
 AtmWgt=  12.0000000  12.0000000  12.0000000  12.0000000   1.0078250  12.0000000   1.0078250   1.0078250   1.0078250  12.0000000
 NucSpn=           0           0           0           0           1           0           1           1           1           0
 AtZEff=   0.0000000   0.0000000   0.0000000   0.0000000   0.0000000   0.0000000   0.0000000   0.0000000   0.0000000   0.0000000
 NQMom=    0.0000000   0.0000000   0.0000000   0.0000000   0.0000000   0.0000000   0.0000000   0.0000000   0.0000000   0.0000000
 NMagM=    0.0000000   0.0000000   0.0000000   0.0000000   2.7928460   0.0000000   2.7928460   2.7928460   2.7928460   0.0000000
 AtZNuc=   6.0000000   6.0000000   6.0000000   6.0000000   1.0000000   6.0000000   1.0000000   1.0000000   1.0000000   6.0000000

  Atom       111         112         113         114         115         116         117
 IAtWgt=          19          19          19          12          19          19          19
 AtmWgt=  18.9984032  18.9984032  18.9984032  12.0000000  18.9984032  18.9984032  18.9984032
 NucSpn=           1           1           1           0           1           1           1
 AtZEff=   0.0000000   0.0000000   0.0000000   0.0000000   0.0000000   0.0000000   0.0000000
 NQMom=    0.0000000   0.0000000   0.0000000   0.0000000   0.0000000   0.0000000   0.0000000
 NMagM=    2.6288670   2.6288670   2.6288670   0.0000000   2.6288670   2.6288670   2.6288670
 AtZNuc=   9.0000000   9.0000000   9.0000000   6.0000000   9.0000000   9.0000000   9.0000000
 Leave Link  101 at Wed Jun 12 02:59:15 2024, MaxMem=  8589934592 cpu:               2.3 elap:               0.1
 (Enter /opt/packages/gaussian/g16RevC.01/g16/l202.exe)
 Symmetry turned off by external request.
 Stoichiometry    C60H39F7IN3O5S2
 Framework group  C1[X(C60H39F7IN3O5S2)]
 Deg. of freedom   345
 Full point group                 C1      NOp   1
                          Input orientation:                          
 ---------------------------------------------------------------------
 Center     Atomic      Atomic             Coordinates (Angstroms)
 Number     Number       Type             X           Y           Z
 ---------------------------------------------------------------------
      1          6           0       -1.938704   -2.301147    0.127634
      2          6           0       -0.675975   -2.828764    0.740994
      3          6           0       -0.257804   -2.165342    1.999809
      4          6           0       -0.999927   -1.156612    2.503367
      5          6           0       -2.234261   -0.784079    1.852775
      6          7           0       -2.644717   -1.383298    0.686915
      7          1           0       -0.644127   -0.634240    3.386279
      8          6           0       -2.438005   -2.872260   -1.154765
      9          6           0       -3.821751   -3.028992   -1.421947
     10          6           0       -4.231925   -3.506677   -2.671998
     11          6           0       -1.951638   -3.688450   -3.419969
     12          6           0       -3.312188   -3.824419   -3.667222
     13          1           0       -5.298846   -3.640827   -2.855666
     14          1           0       -3.656026   -4.192545   -4.635078
     15          1           0       -1.190612   -3.933037   -4.161072
     16          6           0       -1.542976   -3.238198   -2.173851
     17          6           0       -4.896651   -2.756568   -0.425354
     18          6           0       -5.977569   -1.946598   -0.790185
     19          6           0       -4.891319   -3.351099    0.844511
     20          6           0       -7.021531   -1.706977    0.105930
     21          1           0       -5.993502   -1.494103   -1.783952
     22          6           0       -5.937160   -3.121386    1.733764
     23          1           0       -4.060905   -4.002995    1.129170
     24          6           0       -7.003772   -2.293199    1.369620
     25          1           0       -7.849520   -1.059755   -0.189824
     26          1           0       -5.925137   -3.595680    2.716968
     27          1           0       -7.819725   -2.111030    2.071486
     28          9           0       -0.227783   -3.166645   -1.969525
     29          6           0        1.003093   -2.619719    2.654050
     30          1           0        0.811663   -3.538709    3.230610
     31          1           0        1.767775   -2.845159    1.898237
     32          1           0        1.389335   -1.843677    3.324676
     33          6           0       -4.332092    0.481655    1.736336
     34          6           0       -2.742044    0.988172    3.499146
     35          6           0       -5.404711    0.402523    2.816394
     36          1           0       -4.546148   -0.201628    0.908665
     37          1           0       -4.269578    1.509965    1.350337
     38          6           0       -3.889739    0.883215    4.496754
     39          1           0       -1.795378    0.715229    3.968164
     40          1           0       -2.665825    2.026474    3.140422
     41          1           0       -5.503131   -0.643688    3.160188
     42          1           0       -6.364386    0.723800    2.391123
     43          1           0       -3.940314   -0.149248    4.892174
     44          1           0       -3.702735    1.569461    5.332653
     45          7           0       -3.028248    0.155648    2.328315
     46          8           0       -5.106137    1.245136    3.901609
     47         53           0       -0.951921   -4.956506    1.078754
     48          1           0        0.154560   -2.791176    0.026406
     49          6           0        2.670470    5.805032   -1.803016
     50          6           0        2.114613    4.749233   -1.120506
     51          6           0        2.912294    3.638977   -0.720839
     52          6           0        4.291901    3.639274   -1.076404
     53          6           0        4.842318    4.751702   -1.772874
     54          6           0        4.050396    5.815321   -2.124677
     55          1           0        2.039802    6.642309   -2.105949
     56          1           0        1.047902    4.758396   -0.897760
     57          6           0        2.382263    2.513452   -0.001239
     58          6           0        5.094309    2.521430   -0.754058
     59          1           0        5.903818    4.732456   -2.027326
     60          1           0        4.475615    6.664164   -2.662355
     61          6           0        4.569026    1.412844   -0.115431
     62          6           0        3.189480    1.426149    0.267297
     63          1           0        6.149625    2.523967   -1.033203
     64          6           0        0.931705    2.572923    0.380984
     65          6           0       -0.015247    1.770767   -0.228613
     66          6           0        0.523608    3.552379    1.347009
     67          6           0       -1.414739    2.053456   -0.077243
     68          6           0       -0.864903    3.781913    1.557846
     69          6           0        1.460648    4.288917    2.123009
     70          6           0       -1.807794    3.056926    0.790871
     71          6           0       -1.280024    4.749531    2.514839
     72          6           0        1.032035    5.205906    3.053610
     73          1           0        2.527645    4.106210    1.989531
     74          1           0       -2.867589    3.310563    0.868892
     75          6           0       -0.351137    5.445556    3.248455
     76          1           0       -2.349347    4.923193    2.654424
     77          1           0        1.763653    5.752839    3.650268
     78          1           0       -0.673836    6.183033    3.984994
     79         16           0        2.390174    0.013092    1.014381
     80          8           0        1.715583    0.522218    2.176942
     81          8           0        3.363607   -1.007182    1.251708
     82         16           0        0.573197    0.336594   -1.138256
     83          8           0        1.399265    0.836418   -2.195028
     84          8           0       -0.569075   -0.440722   -1.523113
     85          7           0        1.375021   -0.511752   -0.076849
     86          6           0        5.470686    0.323509    0.120590
     87          6           0        6.331677   -0.520829    0.252605
     88          6           0       -2.439943    1.464435   -0.889534
     89          6           0       -3.370407    1.131767   -1.594999
     90          6           0       -4.376406    0.704121   -2.519409
     91          6           0       -5.700023    1.192795   -2.490120
     92          6           0       -4.022068   -0.223508   -3.511681
     93          6           0       -6.633629    0.760733   -3.427407
     94          6           0       -4.960013   -0.647072   -4.449703
     95          1           0       -2.999584   -0.607134   -3.525179
     96          6           0       -6.264889   -0.158344   -4.410854
     97          1           0       -7.652697    1.145930   -3.391161
     98          1           0       -4.666637   -1.367100   -5.215456
     99          1           0       -6.999986   -0.488994   -5.145498
    100          6           0        7.294584   -1.564588    0.434786
    101          6           0        8.646555   -1.400385    0.070588
    102          6           0        6.886946   -2.787973    0.988685
    103          6           0        9.559055   -2.434155    0.257192
    104          6           0        7.804637   -3.818276    1.172651
    105          1           0        5.839595   -2.909725    1.267517
    106          6           0        9.139237   -3.644883    0.808422
    107          1           0       10.601140   -2.292490   -0.029599
    108          1           0        7.473302   -4.764359    1.603372
    109          1           0        9.858596   -4.452077    0.951709
    110          6           0        9.097597   -0.091656   -0.524722
    111          9           0        8.884032    0.935625    0.304805
    112          9           0        8.450302    0.192722   -1.659740
    113          9           0       10.401585   -0.097008   -0.810456
    114          6           0       -6.130370    2.142162   -1.404337
    115          9           0       -5.309098    3.186243   -1.274512
    116          9           0       -6.167281    1.532998   -0.206895
    117          9           0       -7.353182    2.629105   -1.620295
 ---------------------------------------------------------------------
 Rotational constants (GHZ):           0.0352615           0.0171957           0.0143475
 Leave Link  202 at Wed Jun 12 02:59:15 2024, MaxMem=  8589934592 cpu:               0.4 elap:               0.0
 (Enter /opt/packages/gaussian/g16RevC.01/g16/l301.exe)
 Standard basis: def2TZVPP (5D, 7F)
 Ernie: Thresh=  0.10000D-02 Tol=  0.10000D-05 Strict=F.
  3005 basis functions,  4735 primitive gaussians,  3440 cartesian basis functions
   290 alpha electrons      290 beta electrons
       nuclear repulsion energy     15404.7334196544 Hartrees.
 IExCor=  402 DFT=T Ex+Corr=B3LYP ExCW=0 ScaHFX=  0.200000
 ScaDFX=  0.800000  0.720000  1.000000  0.810000 ScalE2=  1.000000  1.000000
 IRadAn=      5 IRanWt=     -1 IRanGd=            0 ICorTp=0 IEmpDi=141
 NAtoms=  117 NActive=  117 NUniq=  117 SFac= 1.00D+00 NAtFMM=   60 NAOKFM=T Big=T
 Integral buffers will be    131072 words long.
 Raffenetti 2 integral format.
 Two-electron integral symmetry is turned off.
 R6Disp:  Grimme-D3(BJ) Dispersion energy=       -0.3873887216 Hartrees.
 Nuclear repulsion after empirical dispersion term =    15404.3460309327 Hartrees.
 ------------------------------------------------------------------------------
 Polarizable Continuum Model (PCM)
 =================================
 Model                : PCM.
 Atomic radii         : SMD-Coulomb.
 Polarization charges : Total charges.
 Charge compensation  : None.
 Solution method      : On-the-fly selection.
 Cavity type          : VdW (van der Waals Surface) (Alpha=1.000).
 Cavity algorithm     : GePol (No added spheres)
                        Default sphere list used, NSphG=  117.
                        Lebedev-Laikov grids with approx.  5.0 points / Ang**2.
                        Smoothing algorithm: York/Karplus (Gamma=1.0000).
                        Polarization charges: spherical gaussians, with
                                              point-specific exponents (IZeta= 3).
                        Self-potential: point-specific (ISelfS= 7).
                        Self-field    : sphere-specific E.n sum rule (ISelfD= 2).
 Solvent              : PropylEthanoate, Eps=   5.520500 Eps(inf)=   1.916010
 ------------------------------------------------------------------------------
 GePol: Number of generator spheres                  =     117
 GePol: Total number of spheres                      =     117
 GePol: Number of exposed spheres                    =     117 (100.00%)
 GePol: Number of points                             =    8414
 GePol: Average weight of points                     =       0.11
 GePol: Minimum weight of points                     =   0.19D-11
 GePol: Maximum weight of points                     =    0.21501
 GePol: Number of points with low weight             =     554
 GePol: Fraction of low-weight points (<1% of avg)   =       6.58%
 GePol: Cavity surface area                          =    938.544 Ang**2
 GePol: Cavity volume                                =   1076.262 Ang**3
 ------------------------------------------------------------------------------
 Atomic radii for non-electrostatic terms: SMD-CDS.
 ------------------------------------------------------------------------------
 PCM non-electrostatic energy =        -0.0205784708 Hartrees.
 Nuclear repulsion after PCM non-electrostatic terms =    15404.3254524619 Hartrees.
 Leave Link  301 at Wed Jun 12 02:59:15 2024, MaxMem=  8589934592 cpu:               5.2 elap:               0.2
 (Enter /opt/packages/gaussian/g16RevC.01/g16/l302.exe)
 NPDir=0 NMtPBC=     1 NCelOv=     1 NCel=       1 NClECP=     1 NCelD=      1
         NCelK=      1 NCelE2=     1 NClLst=     1 CellRange=     0.0.
 One-electron integrals computed using PRISM.
   1 Symmetry operations used in ECPInt.
 ECPInt:  NShTT=  608856 NPrTT= 1802125 LenC2=  377070 LenP2D=  714441.
 LDataN:  DoStor=T MaxTD1= 7 Len=  274
 Number of processors reduced to  17 by ecpmxn.
 NBasis=  3005 RedAO= T EigKep=  1.84D-06  NBF=  3005
 NBsUse=  3005 1.00D-06 EigRej= -1.00D+00 NBFU=  3005
 Precomputing XC quadrature grid using
 IXCGrd= 4 IRadAn=           5 IRanWt=          -1 IRanGd=           0 AccXCQ= 0.00D+00.
 Defaulting to unpruned grid for atomic number  53.
 Generated NRdTot=       0 NPtTot=           0 NUsed=           0 NTot=          32
 NSgBfM=  2949  2929  2948  2949  2949 MxSgAt=   117 MxSgA2=   117.
 Leave Link  302 at Wed Jun 12 02:59:37 2024, MaxMem=  8589934592 cpu:             682.8 elap:              21.9
 (Enter /opt/packages/gaussian/g16RevC.01/g16/l303.exe)
 DipDrv:  MaxL=1.
 Leave Link  303 at Wed Jun 12 02:59:39 2024, MaxMem=  8589934592 cpu:              30.6 elap:               1.3
 (Enter /opt/packages/gaussian/g16RevC.01/g16/l401.exe)
 ExpMin= 7.49D-02 ExpMax= 6.07D+04 ExpMxC= 2.07D+03 IAcc=3 IRadAn=         5 AccDes= 0.00D+00
 Harris functional with IExCor=  402 and IRadAn=       5 diagonalized for initial guess.
 HarFok:  IExCor=  402 AccDes= 0.00D+00 IRadAn=         5 IDoV= 1 UseB2=F ITyADJ=14
 ICtDFT=  3500011 ScaDFX=  1.000000  1.000000  1.000000  1.000000
 Defaulting to unpruned grid for atomic number  53.
 FoFCou: FMM=F IPFlag=           0 FMFlag=      100000 FMFlg1=        2001
         NFxFlg=           0 DoJE=T BraDBF=F KetDBF=T FulRan=T
         wScrn=  0.000000 ICntrl=       500 IOpCl=  0 I1Cent=   200000004 NGrid=           0
         NMat0=    1 NMatS0=      1 NMatT0=    0 NMatD0=    1 NMtDS0=    0 NMtDT0=    0
 Symmetry not used in FoFCou.
 Harris En= -4645.01906065378    
 JPrj=0 DoOrth=F DoCkMO=F.
 Leave Link  401 at Wed Jun 12 03:00:05 2024, MaxMem=  8589934592 cpu:             838.2 elap:              26.4
 (Enter /opt/packages/gaussian/g16RevC.01/g16/l502.exe)
 Two-electron integral symmetry not used.
 Closed shell SCF:
 Using DIIS extrapolation, IDIIS=  1040.
 NGot=  8589934592 LenX=  8566133628 LenY=  8554296588
 Requested convergence on RMS density matrix=1.00D-08 within 128 cycles.
 Requested convergence on MAX density matrix=1.00D-06.
 Requested convergence on             energy=1.00D-06.
 No special actions if energy rises.
 Fock matrices will be formed incrementally for  20 cycles.

 Cycle   1  Pass 1  IDiag  1:
 FoFJK:  IHMeth= 1 ICntrl=       0 DoSepK=F KAlg= 0 I1Cent=           0 FoldK=F
 IRaf= 570000000 NMat=       1 IRICut=       1 DoRegI=T DoRafI=F ISym2E= 0 IDoP0=0 IntGTp=1.
 FoFCou: FMM=T IPFlag=           0 FMFlag=      100000 FMFlg1=        2001
         NFxFlg=           0 DoJE=F BraDBF=F KetDBF=F FulRan=T
         wScrn=  0.000000 ICntrl=         0 IOpCl=  0 I1Cent=           0 NGrid=           0
         NMat0=    1 NMatS0=      1 NMatT0=    0 NMatD0=    1 NMtDS0=    0 NMtDT0=    0
 Symmetry not used in FoFCou.
 FMM levels:  10  Number of levels for PrismC:   9
 Defaulting to unpruned grid for atomic number  53.
 Defaulting to unpruned grid for atomic number  53.
 Defaulting to unpruned grid for atomic number  53.
 Defaulting to unpruned grid for atomic number  53.
 Defaulting to unpruned grid for atomic number  53.
 Defaulting to unpruned grid for atomic number  53.
 Defaulting to unpruned grid for atomic number  53.
 Defaulting to unpruned grid for atomic number  53.
 Defaulting to unpruned grid for atomic number  53.
 Defaulting to unpruned grid for atomic number  53.
 Defaulting to unpruned grid for atomic number  53.
 Defaulting to unpruned grid for atomic number  53.
 Defaulting to unpruned grid for atomic number  53.
 Defaulting to unpruned grid for atomic number  53.
 Defaulting to unpruned grid for atomic number  53.
 Defaulting to unpruned grid for atomic number  53.
 Defaulting to unpruned grid for atomic number  53.
 Defaulting to unpruned grid for atomic number  53.
 Defaulting to unpruned grid for atomic number  53.
 Defaulting to unpruned grid for atomic number  53.
 Defaulting to unpruned grid for atomic number  53.
 Defaulting to unpruned grid for atomic number  53.
 Defaulting to unpruned grid for atomic number  53.
 Defaulting to unpruned grid for atomic number  53.
 Defaulting to unpruned grid for atomic number  53.
 Defaulting to unpruned grid for atomic number  53.
 Defaulting to unpruned grid for atomic number  53.
 Defaulting to unpruned grid for atomic number  53.
 Defaulting to unpruned grid for atomic number  53.
 Defaulting to unpruned grid for atomic number  53.
 Defaulting to unpruned grid for atomic number  53.
 Defaulting to unpruned grid for atomic number  53.
 Inv3:  Mode=1 IEnd=   212386188.
 Iteration    1 A*A^-1 deviation from unit magnitude is 3.77D-15 for   1460.
 Iteration    1 A*A^-1 deviation from orthogonality  is 2.97D-15 for   3479   2779.
 Iteration    1 A^-1*A deviation from unit magnitude is 3.77D-15 for   5173.
 Iteration    1 A^-1*A deviation from orthogonality  is 2.89D-15 for   5868   4704.
 E= -4643.10833689164    
 DIIS: error= 1.92D-02 at cycle   1 NSaved=   1.
 NSaved= 1 IEnMin= 1 EnMin= -4643.10833689164     IErMin= 1 ErrMin= 1.92D-02
 ErrMax= 1.92D-02  0.00D+00 EMaxC= 1.00D-01 BMatC= 2.40D+00 BMatP= 2.40D+00
 IDIUse=3 WtCom= 8.08D-01 WtEn= 1.92D-01
 Coeff-Com:  0.100D+01
 Coeff-En:   0.100D+01
 Coeff:      0.100D+01
 Gap=     0.330 Goal=   None    Shift=    0.000
 GapD=    0.330 DampG=1.000 DampE=0.500 DampFc=0.5000 IDamp=-1.
 Damping current iteration by 5.00D-01
 RMSDP=3.43D-03 MaxDP=1.58D+00              OVMax= 2.25D-01

 Cycle   2  Pass 1  IDiag  1:
 RMSU=  1.68D-03    CP:  1.09D+00
 E= -4643.69219211627     Delta-E=       -0.583855224628 Rises=F Damp=T
 DIIS: error= 6.35D-03 at cycle   2 NSaved=   2.
 NSaved= 2 IEnMin= 2 EnMin= -4643.69219211627     IErMin= 2 ErrMin= 6.35D-03
 ErrMax= 6.35D-03  0.00D+00 EMaxC= 1.00D-01 BMatC= 3.22D-01 BMatP= 2.40D+00
 IDIUse=3 WtCom= 9.37D-01 WtEn= 6.35D-02
 Coeff-Com:  0.175D+00 0.825D+00
 Coeff-En:   0.304D+00 0.696D+00
 Coeff:      0.183D+00 0.817D+00
 Gap=     0.081 Goal=   None    Shift=    0.000
 RMSDP=1.27D-03 MaxDP=3.85D-01 DE=-5.84D-01 OVMax= 2.34D-01

 Cycle   3  Pass 1  IDiag  1:
 RMSU=  1.07D-03    CP:  1.06D+00  5.95D-01
 E= -4644.71261911886     Delta-E=       -1.020427002593 Rises=F Damp=F
 DIIS: error= 6.61D-03 at cycle   3 NSaved=   3.
 NSaved= 3 IEnMin= 3 EnMin= -4644.71261911886     IErMin= 2 ErrMin= 6.35D-03
 ErrMax= 6.61D-03  0.00D+00 EMaxC= 1.00D-01 BMatC= 3.43D-01 BMatP= 3.22D-01
 IDIUse=3 WtCom= 9.34D-01 WtEn= 6.61D-02
 Coeff-Com:  0.180D-01 0.507D+00 0.475D+00
 Coeff-En:   0.000D+00 0.000D+00 0.100D+01
 Coeff:      0.168D-01 0.473D+00 0.510D+00
 Gap=     0.123 Goal=   None    Shift=    0.000
 RMSDP=9.87D-04 MaxDP=2.47D-01 DE=-1.02D+00 OVMax= 1.23D-01

 Cycle   4  Pass 1  IDiag  1:
 RMSU=  5.04D-04    CP:  1.02D+00  5.24D-01  2.24D-01
 E= -4644.96267960903     Delta-E=       -0.250060490163 Rises=F Damp=F
 DIIS: error= 2.90D-03 at cycle   4 NSaved=   4.
 NSaved= 4 IEnMin= 4 EnMin= -4644.96267960903     IErMin= 4 ErrMin= 2.90D-03
 ErrMax= 2.90D-03  0.00D+00 EMaxC= 1.00D-01 BMatC= 5.41D-02 BMatP= 3.22D-01
 IDIUse=3 WtCom= 9.71D-01 WtEn= 2.90D-02
 Coeff-Com: -0.137D-01 0.167D+00 0.316D+00 0.531D+00
 Coeff-En:   0.000D+00 0.000D+00 0.162D+00 0.838D+00
 Coeff:     -0.133D-01 0.162D+00 0.311D+00 0.540D+00
 Gap=     0.102 Goal=   None    Shift=    0.000
 RMSDP=3.14D-04 MaxDP=1.28D-01 DE=-2.50D-01 OVMax= 5.42D-02

 Cycle   5  Pass 1  IDiag  1:
 RMSU=  1.42D-04    CP:  1.03D+00  5.53D-01  4.37D-01  7.01D-01
 E= -4645.00748614461     Delta-E=       -0.044806535579 Rises=F Damp=F
 DIIS: error= 9.45D-04 at cycle   5 NSaved=   5.
 NSaved= 5 IEnMin= 5 EnMin= -4645.00748614461     IErMin= 5 ErrMin= 9.45D-04
 ErrMax= 9.45D-04  0.00D+00 EMaxC= 1.00D-01 BMatC= 6.28D-03 BMatP= 5.41D-02
 IDIUse=3 WtCom= 9.91D-01 WtEn= 9.45D-03
 Coeff-Com: -0.109D-01 0.403D-01 0.125D+00 0.328D+00 0.517D+00
 Coeff-En:   0.000D+00 0.000D+00 0.000D+00 0.893D-01 0.911D+00
 Coeff:     -0.108D-01 0.399D-01 0.124D+00 0.326D+00 0.521D+00
 Gap=     0.098 Goal=   None    Shift=    0.000
 RMSDP=7.08D-05 MaxDP=1.77D-02 DE=-4.48D-02 OVMax= 1.86D-02

 Cycle   6  Pass 1  IDiag  1:
 RMSU=  4.46D-05    CP:  1.03D+00  5.50D-01  4.10D-01  7.49D-01  7.21D-01
 E= -4645.01280387963     Delta-E=       -0.005317735020 Rises=F Damp=F
 DIIS: error= 3.71D-04 at cycle   6 NSaved=   6.
 NSaved= 6 IEnMin= 6 EnMin= -4645.01280387963     IErMin= 6 ErrMin= 3.71D-04
 ErrMax= 3.71D-04  0.00D+00 EMaxC= 1.00D-01 BMatC= 8.92D-04 BMatP= 6.28D-03
 IDIUse=3 WtCom= 9.96D-01 WtEn= 3.71D-03
 Coeff-Com: -0.514D-02 0.784D-02 0.420D-01 0.142D+00 0.330D+00 0.483D+00
 Coeff-En:   0.000D+00 0.000D+00 0.000D+00 0.000D+00 0.111D+00 0.889D+00
 Coeff:     -0.512D-02 0.781D-02 0.419D-01 0.142D+00 0.329D+00 0.485D+00
 Gap=     0.098 Goal=   None    Shift=    0.000
 RMSDP=2.21D-05 MaxDP=5.72D-03 DE=-5.32D-03 OVMax= 6.49D-03

 Cycle   7  Pass 1  IDiag  1:
 RMSU=  1.73D-05    CP:  1.03D+00  5.54D-01  4.17D-01  7.43D-01  7.54D-01
                    CP:  8.33D-01
 E= -4645.01357343021     Delta-E=       -0.000769550581 Rises=F Damp=F
 DIIS: error= 1.37D-04 at cycle   7 NSaved=   7.
 NSaved= 7 IEnMin= 7 EnMin= -4645.01357343021     IErMin= 7 ErrMin= 1.37D-04
 ErrMax= 1.37D-04  0.00D+00 EMaxC= 1.00D-01 BMatC= 1.09D-04 BMatP= 8.92D-04
 IDIUse=3 WtCom= 9.99D-01 WtEn= 1.37D-03
 Coeff-Com: -0.180D-02 0.363D-03 0.111D-01 0.483D-01 0.143D+00 0.311D+00
 Coeff-Com:  0.488D+00
 Coeff-En:   0.000D+00 0.000D+00 0.000D+00 0.000D+00 0.000D+00 0.931D-01
 Coeff-En:   0.907D+00
 Coeff:     -0.180D-02 0.363D-03 0.111D-01 0.482D-01 0.143D+00 0.311D+00
 Coeff:      0.489D+00
 Gap=     0.098 Goal=   None    Shift=    0.000
 RMSDP=7.86D-06 MaxDP=2.61D-03 DE=-7.70D-04 OVMax= 2.27D-03

 Cycle   8  Pass 1  IDiag  1:
 RMSU=  5.82D-06    CP:  1.03D+00  5.55D-01  4.17D-01  7.44D-01  7.58D-01
                    CP:  8.05D-01  7.28D-01
 E= -4645.01367015557     Delta-E=       -0.000096725364 Rises=F Damp=F
 DIIS: error= 3.73D-05 at cycle   8 NSaved=   8.
 NSaved= 8 IEnMin= 8 EnMin= -4645.01367015557     IErMin= 8 ErrMin= 3.73D-05
 ErrMax= 3.73D-05  0.00D+00 EMaxC= 1.00D-01 BMatC= 9.25D-06 BMatP= 1.09D-04
 IDIUse=1 WtCom= 1.00D+00 WtEn= 0.00D+00
 Coeff-Com: -0.457D-03-0.645D-03 0.177D-02 0.125D-01 0.486D-01 0.132D+00
 Coeff-Com:  0.283D+00 0.523D+00
 Coeff:     -0.457D-03-0.645D-03 0.177D-02 0.125D-01 0.486D-01 0.132D+00
 Coeff:      0.283D+00 0.523D+00
 Gap=     0.098 Goal=   None    Shift=    0.000
 RMSDP=2.84D-06 MaxDP=7.26D-04 DE=-9.67D-05 OVMax= 7.96D-04

 Cycle   9  Pass 1  IDiag  1:
 RMSU=  1.71D-06    CP:  1.03D+00  5.55D-01  4.15D-01  7.46D-01  7.54D-01
                    CP:  8.11D-01  7.42D-01  7.81D-01
 E= -4645.01367726609     Delta-E=       -0.000007110521 Rises=F Damp=F
 DIIS: error= 1.45D-05 at cycle   9 NSaved=   9.
 NSaved= 9 IEnMin= 9 EnMin= -4645.01367726609     IErMin= 9 ErrMin= 1.45D-05
 ErrMax= 1.45D-05  0.00D+00 EMaxC= 1.00D-01 BMatC= 1.84D-06 BMatP= 9.25D-06
 IDIUse=1 WtCom= 1.00D+00 WtEn= 0.00D+00
 Coeff-Com: -0.430D-04-0.415D-03-0.359D-03 0.129D-02 0.117D-01 0.423D-01
 Coeff-Com:  0.112D+00 0.341D+00 0.493D+00
 Coeff:     -0.430D-04-0.415D-03-0.359D-03 0.129D-02 0.117D-01 0.423D-01
 Coeff:      0.112D+00 0.341D+00 0.493D+00
 Gap=     0.098 Goal=   None    Shift=    0.000
 RMSDP=1.03D-06 MaxDP=5.58D-04 DE=-7.11D-06 OVMax= 3.59D-04

 Cycle  10  Pass 1  IDiag  1:
 RMSU=  7.47D-07    CP:  1.03D+00  5.55D-01  4.15D-01  7.46D-01  7.56D-01
                    CP:  8.16D-01  7.51D-01  7.72D-01  6.95D-01
 E= -4645.01367889165     Delta-E=       -0.000001625562 Rises=F Damp=F
 DIIS: error= 4.13D-06 at cycle  10 NSaved=  10.
 NSaved=10 IEnMin=10 EnMin= -4645.01367889165     IErMin=10 ErrMin= 4.13D-06
 ErrMax= 4.13D-06  0.00D+00 EMaxC= 1.00D-01 BMatC= 2.25D-07 BMatP= 1.84D-06
 IDIUse=1 WtCom= 1.00D+00 WtEn= 0.00D+00
 Coeff-Com:  0.219D-04-0.172D-03-0.440D-03-0.764D-03 0.157D-02 0.112D-01
 Coeff-Com:  0.364D-01 0.151D+00 0.313D+00 0.488D+00
 Coeff:      0.219D-04-0.172D-03-0.440D-03-0.764D-03 0.157D-02 0.112D-01
 Coeff:      0.364D-01 0.151D+00 0.313D+00 0.488D+00
 Gap=     0.098 Goal=   None    Shift=    0.000
 RMSDP=4.76D-07 MaxDP=2.14D-04 DE=-1.63D-06 OVMax= 1.23D-04

 Cycle  11  Pass 1  IDiag  1:
 RMSU=  2.20D-07    CP:  1.03D+00  5.55D-01  4.16D-01  7.45D-01  7.57D-01
                    CP:  8.16D-01  7.48D-01  7.93D-01  7.66D-01  6.92D-01
 E= -4645.01367909411     Delta-E=       -0.000000202461 Rises=F Damp=F
 DIIS: error= 1.68D-06 at cycle  11 NSaved=  11.
 NSaved=11 IEnMin=11 EnMin= -4645.01367909411     IErMin=11 ErrMin= 1.68D-06
 ErrMax= 1.68D-06  0.00D+00 EMaxC= 1.00D-01 BMatC= 2.07D-08 BMatP= 2.25D-07
 IDIUse=1 WtCom= 1.00D+00 WtEn= 0.00D+00
 Coeff-Com:  0.136D-04-0.507D-04-0.220D-03-0.586D-03-0.324D-03 0.203D-02
 Coeff-Com:  0.853D-02 0.486D-01 0.126D+00 0.287D+00 0.529D+00
 Coeff:      0.136D-04-0.507D-04-0.220D-03-0.586D-03-0.324D-03 0.203D-02
 Coeff:      0.853D-02 0.486D-01 0.126D+00 0.287D+00 0.529D+00
 Gap=     0.098 Goal=   None    Shift=    0.000
 RMSDP=2.12D-07 MaxDP=6.36D-05 DE=-2.02D-07 OVMax= 3.36D-05

 Cycle  12  Pass 1  IDiag  1:
 RMSU=  1.06D-07    CP:  1.03D+00  5.55D-01  4.16D-01  7.45D-01  7.57D-01
                    CP:  8.16D-01  7.53D-01  8.03D-01  7.59D-01  7.09D-01
                    CP:  6.98D-01
 E= -4645.01367911310     Delta-E=       -0.000000018985 Rises=F Damp=F
 DIIS: error= 6.54D-07 at cycle  12 NSaved=  12.
 NSaved=12 IEnMin=12 EnMin= -4645.01367911310     IErMin=12 ErrMin= 6.54D-07
 ErrMax= 6.54D-07  0.00D+00 EMaxC= 1.00D-01 BMatC= 2.40D-09 BMatP= 2.07D-08
 IDIUse=1 WtCom= 1.00D+00 WtEn= 0.00D+00
 Coeff-Com:  0.386D-05 0.204D-06-0.727D-04-0.251D-03-0.493D-03-0.531D-03
 Coeff-Com: -0.584D-03 0.566D-02 0.265D-01 0.880D-01 0.293D+00 0.589D+00
 Coeff:      0.386D-05 0.204D-06-0.727D-04-0.251D-03-0.493D-03-0.531D-03
 Coeff:     -0.584D-03 0.566D-02 0.265D-01 0.880D-01 0.293D+00 0.589D+00
 Gap=     0.098 Goal=   None    Shift=    0.000
 RMSDP=8.14D-08 MaxDP=2.63D-05 DE=-1.90D-08 OVMax= 1.51D-05

 Cycle  13  Pass 1  IDiag  1:
 RMSU=  3.45D-08    CP:  1.03D+00  5.55D-01  4.16D-01  7.45D-01  7.57D-01
                    CP:  8.16D-01  7.52D-01  8.01D-01  7.66D-01  7.28D-01
                    CP:  7.64D-01  7.56D-01
 E= -4645.01367911570     Delta-E=       -0.000000002598 Rises=F Damp=F
 DIIS: error= 2.29D-07 at cycle  13 NSaved=  13.
 NSaved=13 IEnMin=13 EnMin= -4645.01367911570     IErMin=13 ErrMin= 2.29D-07
 ErrMax= 2.29D-07  0.00D+00 EMaxC= 1.00D-01 BMatC= 3.43D-10 BMatP= 2.40D-09
 IDIUse=1 WtCom= 1.00D+00 WtEn= 0.00D+00
 Coeff-Com:  0.708D-07 0.617D-05-0.163D-04-0.703D-04-0.243D-03-0.545D-03
 Coeff-Com: -0.142D-02-0.283D-02-0.130D-03 0.140D-01 0.103D+00 0.339D+00
 Coeff-Com:  0.550D+00
 Coeff:      0.708D-07 0.617D-05-0.163D-04-0.703D-04-0.243D-03-0.545D-03
 Coeff:     -0.142D-02-0.283D-02-0.130D-03 0.140D-01 0.103D+00 0.339D+00
 Coeff:      0.550D+00
 Gap=     0.098 Goal=   None    Shift=    0.000
 RMSDP=2.07D-08 MaxDP=6.12D-06 DE=-2.60D-09 OVMax= 4.45D-06

 Cycle  14  Pass 1  IDiag  1:
 RMSU=  1.23D-08    CP:  1.03D+00  5.55D-01  4.16D-01  7.45D-01  7.57D-01
                    CP:  8.16D-01  7.52D-01  8.01D-01  7.67D-01  7.30D-01
                    CP:  7.83D-01  8.02D-01  7.36D-01
 E= -4645.01367911578     Delta-E=       -0.000000000080 Rises=F Damp=F
 DIIS: error= 1.73D-07 at cycle  14 NSaved=  14.
 NSaved=14 IEnMin=14 EnMin= -4645.01367911578     IErMin=14 ErrMin= 1.73D-07
 ErrMax= 1.73D-07  0.00D+00 EMaxC= 1.00D-01 BMatC= 6.42D-11 BMatP= 3.43D-10
 IDIUse=1 WtCom= 1.00D+00 WtEn= 0.00D+00
 Coeff-Com: -0.585D-06 0.378D-05 0.117D-05-0.374D-05-0.776D-04-0.260D-03
 Coeff-Com: -0.808D-03-0.273D-02-0.443D-02-0.639D-02 0.161D-01 0.116D+00
 Coeff-Com:  0.347D+00 0.535D+00
 Coeff:     -0.585D-06 0.378D-05 0.117D-05-0.374D-05-0.776D-04-0.260D-03
 Coeff:     -0.808D-03-0.273D-02-0.443D-02-0.639D-02 0.161D-01 0.116D+00
 Coeff:      0.347D+00 0.535D+00
 Gap=     0.098 Goal=   None    Shift=    0.000
 RMSDP=9.32D-09 MaxDP=3.01D-06 DE=-8.00D-11 OVMax= 2.31D-06

 Cycle  15  Pass 1  IDiag  1:
 RMSU=  4.20D-09    CP:  1.03D+00  5.55D-01  4.16D-01  7.45D-01  7.57D-01
                    CP:  8.16D-01  7.52D-01  8.02D-01  7.67D-01  7.30D-01
                    CP:  7.85D-01  8.26D-01  8.07D-01  8.24D-01
 E= -4645.01367911583     Delta-E=       -0.000000000053 Rises=F Damp=F
 DIIS: error= 7.69D-08 at cycle  15 NSaved=  15.
 NSaved=15 IEnMin=15 EnMin= -4645.01367911583     IErMin=15 ErrMin= 7.69D-08
 ErrMax= 7.69D-08  0.00D+00 EMaxC= 1.00D-01 BMatC= 1.20D-11 BMatP= 6.42D-11
 IDIUse=1 WtCom= 1.00D+00 WtEn= 0.00D+00
 Coeff-Com: -0.322D-06 0.148D-05 0.291D-05 0.713D-05-0.163D-04-0.865D-04
 Coeff-Com: -0.305D-03-0.131D-02-0.278D-02-0.634D-02-0.515D-02 0.245D-01
 Coeff-Com:  0.147D+00 0.354D+00 0.490D+00
 Coeff:     -0.322D-06 0.148D-05 0.291D-05 0.713D-05-0.163D-04-0.865D-04
 Coeff:     -0.305D-03-0.131D-02-0.278D-02-0.634D-02-0.515D-02 0.245D-01
 Coeff:      0.147D+00 0.354D+00 0.490D+00
 Gap=     0.098 Goal=   None    Shift=    0.000
 RMSDP=2.78D-09 MaxDP=7.31D-07 DE=-5.28D-11 OVMax= 9.73D-07

 Error on total polarization charges =  0.08812
 SCF Done:  E(RB3LYP) =  -4645.01367912     A.U. after   15 cycles
            NFock= 15  Conv=0.28D-08     -V/T= 2.0457
 KE= 4.441809070782D+03 PE=-4.163537965049D+04 EE= 1.714423144813D+04
 SMD-CDS (non-electrostatic) energy       (kcal/mol) =     -12.91
 (included in total energy above)
 Leave Link  502 at Wed Jun 12 04:32:59 2024, MaxMem=  8589934592 cpu:          176803.6 elap:            5573.5
 (Enter /opt/packages/gaussian/g16RevC.01/g16/l601.exe)
 Copying SCF densities to generalized density rwf, IOpCl= 0 IROHF=0.
 Hyperfine terms turned off by default for NAtoms > 100.

 **********************************************************************

            Population analysis using the SCF Density.

 **********************************************************************

 Alpha  occ. eigenvalues --  -89.02891 -89.02819 -24.72227 -24.71916 -24.71790
 Alpha  occ. eigenvalues --  -24.71669 -24.71244 -24.71218 -24.70280 -19.14298
 Alpha  occ. eigenvalues --  -19.09111 -19.09040 -19.09017 -19.09008 -14.40095
 Alpha  occ. eigenvalues --  -14.33361 -14.28231 -10.42907 -10.42325 -10.29583
 Alpha  occ. eigenvalues --  -10.27328 -10.27138 -10.23785 -10.23082 -10.22545
 Alpha  occ. eigenvalues --  -10.22538 -10.22414 -10.21979 -10.21727 -10.21585
 Alpha  occ. eigenvalues --  -10.21281 -10.21266 -10.20951 -10.20820 -10.20772
 Alpha  occ. eigenvalues --  -10.20679 -10.20654 -10.20559 -10.20515 -10.20362
 Alpha  occ. eigenvalues --  -10.19644 -10.19520 -10.19520 -10.19506 -10.19460
 Alpha  occ. eigenvalues --  -10.19197 -10.19185 -10.19144 -10.19117 -10.19006
 Alpha  occ. eigenvalues --  -10.18992 -10.18939 -10.18888 -10.18686 -10.18606
 Alpha  occ. eigenvalues --  -10.18574 -10.18561 -10.18517 -10.18346 -10.18244
 Alpha  occ. eigenvalues --  -10.18203 -10.18198 -10.18135 -10.18067 -10.17927
 Alpha  occ. eigenvalues --  -10.17909 -10.17865 -10.17859 -10.17848 -10.17843
 Alpha  occ. eigenvalues --  -10.17816 -10.17800 -10.17778 -10.17716 -10.17608
 Alpha  occ. eigenvalues --  -10.17203 -10.16712  -8.07388  -8.07351  -6.84761
 Alpha  occ. eigenvalues --   -6.03707  -6.03674  -6.03634  -6.03593  -6.03582
 Alpha  occ. eigenvalues --   -6.03557  -4.87290  -4.85983  -4.85976  -1.92066
 Alpha  occ. eigenvalues --   -1.91660  -1.91649  -1.90536  -1.90535  -1.32937
 Alpha  occ. eigenvalues --   -1.32343  -1.24490  -1.23921  -1.23522  -1.23313
 Alpha  occ. eigenvalues --   -1.22935  -1.11054  -1.09564  -1.06494  -1.02225
 Alpha  occ. eigenvalues --   -0.98753  -0.98634  -0.96050  -0.90264  -0.88728
 Alpha  occ. eigenvalues --   -0.88531  -0.88307  -0.88250  -0.88056  -0.85729
 Alpha  occ. eigenvalues --   -0.84881  -0.84271  -0.83894  -0.81699  -0.81539
 Alpha  occ. eigenvalues --   -0.79689  -0.79477  -0.79318  -0.78806  -0.78652
 Alpha  occ. eigenvalues --   -0.78316  -0.77104  -0.76646  -0.76526  -0.76317
 Alpha  occ. eigenvalues --   -0.74939  -0.74777  -0.74645  -0.74377  -0.73229
 Alpha  occ. eigenvalues --   -0.72564  -0.71883  -0.71757  -0.70855  -0.70356
 Alpha  occ. eigenvalues --   -0.68995  -0.67818  -0.67651  -0.65896  -0.65523
 Alpha  occ. eigenvalues --   -0.65224  -0.64793  -0.64578  -0.63803  -0.63401
 Alpha  occ. eigenvalues --   -0.63304  -0.63083  -0.62711  -0.62070  -0.61657
 Alpha  occ. eigenvalues --   -0.61416  -0.60704  -0.60332  -0.60067  -0.59961
 Alpha  occ. eigenvalues --   -0.59551  -0.59303  -0.58424  -0.58077  -0.57972
 Alpha  occ. eigenvalues --   -0.57545  -0.56766  -0.55800  -0.55041  -0.54715
 Alpha  occ. eigenvalues --   -0.54635  -0.53864  -0.53135  -0.52620  -0.52063
 Alpha  occ. eigenvalues --   -0.51868  -0.51527  -0.51217  -0.50989  -0.50353
 Alpha  occ. eigenvalues --   -0.50229  -0.49520  -0.49387  -0.48991  -0.48752
 Alpha  occ. eigenvalues --   -0.48553  -0.48429  -0.48138  -0.48002  -0.47830
 Alpha  occ. eigenvalues --   -0.47763  -0.47657  -0.47530  -0.47286  -0.47030
 Alpha  occ. eigenvalues --   -0.46907  -0.46707  -0.46518  -0.46384  -0.46143
 Alpha  occ. eigenvalues --   -0.45680  -0.45609  -0.45500  -0.45179  -0.44948
 Alpha  occ. eigenvalues --   -0.44788  -0.44774  -0.44549  -0.44377  -0.44057
 Alpha  occ. eigenvalues --   -0.44032  -0.43751  -0.43324  -0.43185  -0.43026
 Alpha  occ. eigenvalues --   -0.42981  -0.42862  -0.42772  -0.42652  -0.42498
 Alpha  occ. eigenvalues --   -0.42427  -0.42189  -0.41621  -0.41465  -0.41325
 Alpha  occ. eigenvalues --   -0.41204  -0.40828  -0.40640  -0.40500  -0.40432
 Alpha  occ. eigenvalues --   -0.40178  -0.39913  -0.39370  -0.39063  -0.39019
 Alpha  occ. eigenvalues --   -0.38713  -0.38516  -0.38068  -0.37802  -0.37509
 Alpha  occ. eigenvalues --   -0.37183  -0.37149  -0.36937  -0.36655  -0.36632
 Alpha  occ. eigenvalues --   -0.36391  -0.36298  -0.36198  -0.36107  -0.35966
 Alpha  occ. eigenvalues --   -0.35618  -0.35220  -0.34952  -0.34721  -0.34548
 Alpha  occ. eigenvalues --   -0.34249  -0.33906  -0.33585  -0.33367  -0.32783
 Alpha  occ. eigenvalues --   -0.32269  -0.31956  -0.31562  -0.31238  -0.30672
 Alpha  occ. eigenvalues --   -0.30318  -0.29989  -0.29628  -0.28920  -0.28900
 Alpha  occ. eigenvalues --   -0.28289  -0.27958  -0.27883  -0.27314  -0.27268
 Alpha  occ. eigenvalues --   -0.27115  -0.26838  -0.26767  -0.26450  -0.26315
 Alpha  occ. eigenvalues --   -0.26071  -0.25895  -0.25872  -0.25271  -0.24614
 Alpha  occ. eigenvalues --   -0.24040  -0.23907  -0.23162  -0.21903  -0.21315
 Alpha virt. eigenvalues --   -0.11502  -0.07456  -0.06975  -0.05946  -0.05695
 Alpha virt. eigenvalues --   -0.05093  -0.03675  -0.03140  -0.02989  -0.02945
 Alpha virt. eigenvalues --   -0.02202  -0.01678  -0.01542  -0.00372   0.00072
 Alpha virt. eigenvalues --    0.00377   0.01224   0.03642   0.03979   0.04441
 Alpha virt. eigenvalues --    0.04502   0.04579   0.04848   0.05015   0.05290
 Alpha virt. eigenvalues --    0.05496   0.05848   0.06044   0.06154   0.06550
 Alpha virt. eigenvalues --    0.06950   0.07107   0.07256   0.07696   0.07854
 Alpha virt. eigenvalues --    0.07938   0.08187   0.08294   0.08471   0.08711
 Alpha virt. eigenvalues --    0.08981   0.09046   0.09207   0.09590   0.09697
 Alpha virt. eigenvalues --    0.09890   0.09930   0.10144   0.10200   0.10470
 Alpha virt. eigenvalues --    0.10547   0.10611   0.10753   0.10889   0.11068
 Alpha virt. eigenvalues --    0.11126   0.11304   0.11473   0.11506   0.11797
 Alpha virt. eigenvalues --    0.12021   0.12120   0.12504   0.12598   0.12899
 Alpha virt. eigenvalues --    0.12969   0.13136   0.13341   0.13454   0.13581
 Alpha virt. eigenvalues --    0.13698   0.13935   0.14161   0.14323   0.14366
 Alpha virt. eigenvalues --    0.14474   0.14615   0.14672   0.14803   0.14974
 Alpha virt. eigenvalues --    0.15093   0.15196   0.15591   0.15846   0.16007
 Alpha virt. eigenvalues --    0.16083   0.16337   0.16536   0.16713   0.16866
 Alpha virt. eigenvalues --    0.17008   0.17318   0.17591   0.17700   0.17920
 Alpha virt. eigenvalues --    0.18044   0.18260   0.18504   0.18668   0.18710
 Alpha virt. eigenvalues --    0.18989   0.19071   0.19183   0.19418   0.19554
 Alpha virt. eigenvalues --    0.19620   0.19886   0.20002   0.20132   0.20246
 Alpha virt. eigenvalues --    0.20375   0.20535   0.20681   0.20889   0.20988
 Alpha virt. eigenvalues --    0.21026   0.21141   0.21168   0.21294   0.21489
 Alpha virt. eigenvalues --    0.21685   0.21787   0.21891   0.22086   0.22213
 Alpha virt. eigenvalues --    0.22315   0.22536   0.22629   0.22843   0.22977
 Alpha virt. eigenvalues --    0.23045   0.23218   0.23270   0.23526   0.23791
 Alpha virt. eigenvalues --    0.23834   0.23981   0.24265   0.24297   0.24549
 Alpha virt. eigenvalues --    0.24643   0.24731   0.24901   0.25066   0.25143
 Alpha virt. eigenvalues --    0.25274   0.25441   0.25450   0.25790   0.25873
 Alpha virt. eigenvalues --    0.25983   0.26240   0.26439   0.26694   0.26820
 Alpha virt. eigenvalues --    0.26959   0.27056   0.27212   0.27559   0.27684
 Alpha virt. eigenvalues --    0.27850   0.28089   0.28166   0.28373   0.28611
 Alpha virt. eigenvalues --    0.28613   0.28789   0.29015   0.29118   0.29315
 Alpha virt. eigenvalues --    0.29371   0.29550   0.29659   0.29725   0.29909
 Alpha virt. eigenvalues --    0.30006   0.30083   0.30221   0.30479   0.30670
 Alpha virt. eigenvalues --    0.30767   0.30923   0.31096   0.31172   0.31381
 Alpha virt. eigenvalues --    0.31520   0.31702   0.31737   0.32053   0.32182
 Alpha virt. eigenvalues --    0.32355   0.32508   0.32706   0.32729   0.32878
 Alpha virt. eigenvalues --    0.32923   0.33093   0.33157   0.33222   0.33377
 Alpha virt. eigenvalues --    0.33704   0.33745   0.34158   0.34273   0.34404
 Alpha virt. eigenvalues --    0.34423   0.34594   0.34712   0.34867   0.34914
 Alpha virt. eigenvalues --    0.35361   0.35392   0.35496   0.35894   0.35932
 Alpha virt. eigenvalues --    0.36170   0.36194   0.36572   0.36693   0.36730
 Alpha virt. eigenvalues --    0.36914   0.37038   0.37208   0.37298   0.37416
 Alpha virt. eigenvalues --    0.37494   0.37799   0.37989   0.38062   0.38256
 Alpha virt. eigenvalues --    0.38339   0.38539   0.38703   0.38869   0.38974
 Alpha virt. eigenvalues --    0.38980   0.39195   0.39469   0.39564   0.39699
 Alpha virt. eigenvalues --    0.39816   0.39942   0.40141   0.40266   0.40449
 Alpha virt. eigenvalues --    0.40505   0.40805   0.40954   0.41062   0.41155
 Alpha virt. eigenvalues --    0.41489   0.41646   0.41847   0.41872   0.41942
 Alpha virt. eigenvalues --    0.42085   0.42239   0.42269   0.42452   0.42670
 Alpha virt. eigenvalues --    0.42802   0.42917   0.43026   0.43168   0.43419
 Alpha virt. eigenvalues --    0.43483   0.43548   0.43649   0.43943   0.44043
 Alpha virt. eigenvalues --    0.44176   0.44298   0.44343   0.44463   0.44715
 Alpha virt. eigenvalues --    0.44874   0.44998   0.45161   0.45234   0.45396
 Alpha virt. eigenvalues --    0.45430   0.45642   0.45682   0.45775   0.46026
 Alpha virt. eigenvalues --    0.46132   0.46243   0.46300   0.46518   0.46678
 Alpha virt. eigenvalues --    0.46849   0.47011   0.47234   0.47292   0.47496
 Alpha virt. eigenvalues --    0.47696   0.47786   0.47991   0.48067   0.48108
 Alpha virt. eigenvalues --    0.48333   0.48503   0.48523   0.48741   0.48903
 Alpha virt. eigenvalues --    0.49000   0.49326   0.49386   0.49595   0.49804
 Alpha virt. eigenvalues --    0.49870   0.49973   0.50176   0.50200   0.50533
 Alpha virt. eigenvalues --    0.50673   0.50809   0.50904   0.51089   0.51306
 Alpha virt. eigenvalues --    0.51381   0.51721   0.51832   0.51959   0.52144
 Alpha virt. eigenvalues --    0.52283   0.52401   0.52544   0.52798   0.52914
 Alpha virt. eigenvalues --    0.52956   0.53279   0.53306   0.53450   0.53624
 Alpha virt. eigenvalues --    0.54070   0.54123   0.54389   0.54467   0.54575
 Alpha virt. eigenvalues --    0.54744   0.54965   0.55259   0.55468   0.55751
 Alpha virt. eigenvalues --    0.56004   0.56196   0.56415   0.56543   0.56808
 Alpha virt. eigenvalues --    0.56982   0.57222   0.57440   0.57668   0.57870
 Alpha virt. eigenvalues --    0.58132   0.58158   0.58342   0.58489   0.58656
 Alpha virt. eigenvalues --    0.58878   0.59146   0.59272   0.59390   0.59824
 Alpha virt. eigenvalues --    0.60145   0.60263   0.60383   0.60511   0.60768
 Alpha virt. eigenvalues --    0.60956   0.61302   0.61624   0.61643   0.61888
 Alpha virt. eigenvalues --    0.62110   0.62215   0.62405   0.62572   0.62762
 Alpha virt. eigenvalues --    0.62997   0.63168   0.63305   0.63619   0.63649
 Alpha virt. eigenvalues --    0.63889   0.64098   0.64270   0.64379   0.64609
 Alpha virt. eigenvalues --    0.64694   0.64725   0.65083   0.65213   0.65364
 Alpha virt. eigenvalues --    0.65451   0.65678   0.65973   0.66040   0.66194
 Alpha virt. eigenvalues --    0.66251   0.66406   0.66566   0.66793   0.66917
 Alpha virt. eigenvalues --    0.67061   0.67201   0.67481   0.67566   0.67740
 Alpha virt. eigenvalues --    0.67996   0.68067   0.68160   0.68359   0.68447
 Alpha virt. eigenvalues --    0.68565   0.68651   0.68981   0.69071   0.69265
 Alpha virt. eigenvalues --    0.69442   0.69607   0.69727   0.69811   0.70001
 Alpha virt. eigenvalues --    0.70268   0.70382   0.70427   0.70729   0.70945
 Alpha virt. eigenvalues --    0.71012   0.71150   0.71253   0.71487   0.71695
 Alpha virt. eigenvalues --    0.71899   0.71928   0.72215   0.72390   0.72588
 Alpha virt. eigenvalues --    0.72896   0.72951   0.73061   0.73199   0.73266
 Alpha virt. eigenvalues --    0.73555   0.73697   0.73835   0.73960   0.74439
 Alpha virt. eigenvalues --    0.74509   0.74671   0.74809   0.75167   0.75197
 Alpha virt. eigenvalues --    0.75268   0.75359   0.75792   0.76020   0.76030
 Alpha virt. eigenvalues --    0.76157   0.76280   0.76498   0.76666   0.76913
 Alpha virt. eigenvalues --    0.77041   0.77131   0.77487   0.77624   0.77819
 Alpha virt. eigenvalues --    0.77997   0.78183   0.78213   0.78344   0.78587
 Alpha virt. eigenvalues --    0.78779   0.78854   0.78976   0.79251   0.79459
 Alpha virt. eigenvalues --    0.79474   0.79654   0.79767   0.79939   0.80316
 Alpha virt. eigenvalues --    0.80438   0.80695   0.80839   0.80964   0.81249
 Alpha virt. eigenvalues --    0.81325   0.81462   0.81716   0.81865   0.82060
 Alpha virt. eigenvalues --    0.82342   0.82623   0.82844   0.82922   0.83196
 Alpha virt. eigenvalues --    0.83254   0.83301   0.83430   0.83854   0.83909
 Alpha virt. eigenvalues --    0.84193   0.84364   0.84463   0.84636   0.84913
 Alpha virt. eigenvalues --    0.84967   0.85133   0.85341   0.85491   0.85858
 Alpha virt. eigenvalues --    0.85951   0.86244   0.86519   0.86552   0.86641
 Alpha virt. eigenvalues --    0.86827   0.86946   0.87217   0.87362   0.87560
 Alpha virt. eigenvalues --    0.87814   0.88052   0.88211   0.88518   0.88773
 Alpha virt. eigenvalues --    0.88937   0.89039   0.89128   0.89261   0.89557
 Alpha virt. eigenvalues --    0.89604   0.89857   0.90108   0.90282   0.90307
 Alpha virt. eigenvalues --    0.90434   0.90643   0.90821   0.90922   0.91030
 Alpha virt. eigenvalues --    0.91385   0.91549   0.91600   0.91988   0.92112
 Alpha virt. eigenvalues --    0.92308   0.92524   0.92730   0.92801   0.92983
 Alpha virt. eigenvalues --    0.93243   0.93455   0.93566   0.93768   0.93963
 Alpha virt. eigenvalues --    0.94151   0.94406   0.94692   0.94858   0.94981
 Alpha virt. eigenvalues --    0.95021   0.95150   0.95434   0.95610   0.95711
 Alpha virt. eigenvalues --    0.95849   0.96053   0.96251   0.96339   0.96637
 Alpha virt. eigenvalues --    0.96684   0.96864   0.97008   0.97129   0.97355
 Alpha virt. eigenvalues --    0.97517   0.97698   0.97861   0.98134   0.98164
 Alpha virt. eigenvalues --    0.98441   0.98614   0.98692   0.98976   0.99031
 Alpha virt. eigenvalues --    0.99427   0.99512   0.99724   0.99870   1.00089
 Alpha virt. eigenvalues --    1.00129   1.00382   1.00562   1.00773   1.00924
 Alpha virt. eigenvalues --    1.01148   1.01514   1.01700   1.01780   1.01898
 Alpha virt. eigenvalues --    1.02141   1.02358   1.02667   1.02746   1.02892
 Alpha virt. eigenvalues --    1.03098   1.03405   1.03530   1.03909   1.04199
 Alpha virt. eigenvalues --    1.04453   1.04527   1.04678   1.04829   1.04870
 Alpha virt. eigenvalues --    1.05101   1.05333   1.05427   1.05821   1.06005
 Alpha virt. eigenvalues --    1.06095   1.06232   1.06433   1.06817   1.06971
 Alpha virt. eigenvalues --    1.07256   1.07513   1.07776   1.07937   1.08261
 Alpha virt. eigenvalues --    1.08373   1.08455   1.08657   1.09023   1.09206
 Alpha virt. eigenvalues --    1.09355   1.09665   1.09868   1.10015   1.10231
 Alpha virt. eigenvalues --    1.10503   1.10576   1.10785   1.11110   1.11280
 Alpha virt. eigenvalues --    1.11371   1.11455   1.11694   1.12080   1.12205
 Alpha virt. eigenvalues --    1.12262   1.12508   1.12763   1.13103   1.13129
 Alpha virt. eigenvalues --    1.13378   1.13555   1.13843   1.14048   1.14081
 Alpha virt. eigenvalues --    1.14347   1.14485   1.14675   1.14754   1.14963
 Alpha virt. eigenvalues --    1.15166   1.15321   1.15603   1.15812   1.15880
 Alpha virt. eigenvalues --    1.16087   1.16274   1.16457   1.16598   1.16812
 Alpha virt. eigenvalues --    1.17097   1.17157   1.17215   1.17505   1.17815
 Alpha virt. eigenvalues --    1.17853   1.17944   1.18262   1.18568   1.18792
 Alpha virt. eigenvalues --    1.18963   1.19137   1.19301   1.19441   1.19626
 Alpha virt. eigenvalues --    1.19662   1.20040   1.20317   1.20568   1.20664
 Alpha virt. eigenvalues --    1.20998   1.21437   1.21587   1.21748   1.21863
 Alpha virt. eigenvalues --    1.22030   1.22236   1.22303   1.22485   1.22631
 Alpha virt. eigenvalues --    1.22960   1.23077   1.23300   1.23608   1.23738
 Alpha virt. eigenvalues --    1.24043   1.24114   1.24628   1.24889   1.24975
 Alpha virt. eigenvalues --    1.25075   1.25349   1.25569   1.25710   1.25909
 Alpha virt. eigenvalues --    1.26231   1.26533   1.26621   1.26824   1.26895
 Alpha virt. eigenvalues --    1.27235   1.27440   1.27597   1.27667   1.27871
 Alpha virt. eigenvalues --    1.28302   1.28354   1.28470   1.28627   1.28909
 Alpha virt. eigenvalues --    1.29206   1.29236   1.29390   1.29668   1.29879
 Alpha virt. eigenvalues --    1.30286   1.30418   1.30543   1.30767   1.30957
 Alpha virt. eigenvalues --    1.31099   1.31426   1.31460   1.31555   1.31642
 Alpha virt. eigenvalues --    1.31918   1.31921   1.32174   1.32399   1.32552
 Alpha virt. eigenvalues --    1.32670   1.32873   1.33102   1.33312   1.33426
 Alpha virt. eigenvalues --    1.33501   1.33837   1.33917   1.34080   1.34320
 Alpha virt. eigenvalues --    1.34357   1.34692   1.34942   1.35016   1.35222
 Alpha virt. eigenvalues --    1.35318   1.35595   1.35788   1.35905   1.36104
 Alpha virt. eigenvalues --    1.36401   1.36601   1.36705   1.36795   1.36852
 Alpha virt. eigenvalues --    1.37093   1.37216   1.37327   1.37553   1.37663
 Alpha virt. eigenvalues --    1.37936   1.38085   1.38323   1.38544   1.38778
 Alpha virt. eigenvalues --    1.38958   1.39252   1.39504   1.39800   1.40050
 Alpha virt. eigenvalues --    1.40260   1.40382   1.40569   1.40832   1.41025
 Alpha virt. eigenvalues --    1.41110   1.41201   1.41325   1.41678   1.41752
 Alpha virt. eigenvalues --    1.41830   1.42121   1.42331   1.42448   1.42812
 Alpha virt. eigenvalues --    1.43155   1.43213   1.43510   1.43734   1.43794
 Alpha virt. eigenvalues --    1.43850   1.44187   1.44349   1.44633   1.45083
 Alpha virt. eigenvalues --    1.45327   1.45453   1.45526   1.45674   1.45957
 Alpha virt. eigenvalues --    1.46107   1.46425   1.46600   1.46739   1.46821
 Alpha virt. eigenvalues --    1.47160   1.47272   1.47550   1.47646   1.48007
 Alpha virt. eigenvalues --    1.48100   1.48233   1.48424   1.48650   1.48675
 Alpha virt. eigenvalues --    1.48867   1.49123   1.49354   1.49553   1.49741
 Alpha virt. eigenvalues --    1.50074   1.50626   1.50845   1.51028   1.51166
 Alpha virt. eigenvalues --    1.51354   1.51565   1.51888   1.52014   1.52257
 Alpha virt. eigenvalues --    1.52461   1.52775   1.52864   1.53250   1.53448
 Alpha virt. eigenvalues --    1.53596   1.53909   1.54186   1.54355   1.54503
 Alpha virt. eigenvalues --    1.54703   1.54840   1.55114   1.55167   1.55324
 Alpha virt. eigenvalues --    1.55668   1.55892   1.56229   1.56488   1.56649
 Alpha virt. eigenvalues --    1.56776   1.56986   1.57147   1.57455   1.57813
 Alpha virt. eigenvalues --    1.58085   1.58163   1.58402   1.58860   1.59113
 Alpha virt. eigenvalues --    1.59219   1.59329   1.59481   1.59678   1.59890
 Alpha virt. eigenvalues --    1.60043   1.60443   1.60684   1.61025   1.61304
 Alpha virt. eigenvalues --    1.61524   1.61840   1.61960   1.62055   1.62428
 Alpha virt. eigenvalues --    1.62633   1.62718   1.62972   1.63202   1.63426
 Alpha virt. eigenvalues --    1.63549   1.63727   1.63982   1.64407   1.64695
 Alpha virt. eigenvalues --    1.64816   1.64996   1.65160   1.65230   1.65508
 Alpha virt. eigenvalues --    1.65693   1.66174   1.66459   1.66522   1.66685
 Alpha virt. eigenvalues --    1.66856   1.67234   1.67346   1.67571   1.67766
 Alpha virt. eigenvalues --    1.67873   1.67935   1.68341   1.68653   1.68840
 Alpha virt. eigenvalues --    1.68954   1.69154   1.69478   1.69692   1.69994
 Alpha virt. eigenvalues --    1.70410   1.70547   1.70755   1.71096   1.71300
 Alpha virt. eigenvalues --    1.71391   1.71753   1.71872   1.71951   1.72160
 Alpha virt. eigenvalues --    1.72462   1.72616   1.72830   1.73188   1.73422
 Alpha virt. eigenvalues --    1.73475   1.73684   1.74242   1.74306   1.74443
 Alpha virt. eigenvalues --    1.74554   1.74753   1.75075   1.75302   1.75533
 Alpha virt. eigenvalues --    1.75651   1.75782   1.76228   1.76737   1.76834
 Alpha virt. eigenvalues --    1.77132   1.77314   1.77442   1.77675   1.77804
 Alpha virt. eigenvalues --    1.78087   1.78371   1.78652   1.78805   1.78893
 Alpha virt. eigenvalues --    1.79151   1.79394   1.79921   1.80075   1.80446
 Alpha virt. eigenvalues --    1.80672   1.80736   1.80841   1.81191   1.81613
 Alpha virt. eigenvalues --    1.81812   1.82197   1.82322   1.82842   1.82965
 Alpha virt. eigenvalues --    1.83353   1.83433   1.83838   1.84066   1.84256
 Alpha virt. eigenvalues --    1.84524   1.84995   1.85244   1.85589   1.85922
 Alpha virt. eigenvalues --    1.86036   1.86266   1.86500   1.86683   1.86947
 Alpha virt. eigenvalues --    1.87655   1.87779   1.87933   1.87983   1.88050
 Alpha virt. eigenvalues --    1.88398   1.88818   1.89085   1.89448   1.89613
 Alpha virt. eigenvalues --    1.89877   1.90093   1.90671   1.90917   1.91078
 Alpha virt. eigenvalues --    1.91393   1.91584   1.91938   1.92430   1.92533
 Alpha virt. eigenvalues --    1.93081   1.93298   1.93414   1.94071   1.94364
 Alpha virt. eigenvalues --    1.94642   1.95115   1.95400   1.95512   1.95667
 Alpha virt. eigenvalues --    1.96063   1.96305   1.96542   1.96815   1.97023
 Alpha virt. eigenvalues --    1.97171   1.97344   1.97870   1.97916   1.98206
 Alpha virt. eigenvalues --    1.98423   1.98843   1.99140   1.99493   1.99706
 Alpha virt. eigenvalues --    2.00004   2.00440   2.00658   2.00730   2.01332
 Alpha virt. eigenvalues --    2.01636   2.02061   2.02251   2.02311   2.02661
 Alpha virt. eigenvalues --    2.02815   2.03050   2.03191   2.03475   2.03772
 Alpha virt. eigenvalues --    2.04107   2.04369   2.04580   2.04750   2.05298
 Alpha virt. eigenvalues --    2.05410   2.05873   2.06181   2.06400   2.06483
 Alpha virt. eigenvalues --    2.06982   2.07080   2.07371   2.07575   2.07862
 Alpha virt. eigenvalues --    2.08041   2.08194   2.08548   2.08791   2.09011
 Alpha virt. eigenvalues --    2.09048   2.09570   2.09623   2.09755   2.10143
 Alpha virt. eigenvalues --    2.10505   2.10636   2.11018   2.11026   2.11312
 Alpha virt. eigenvalues --    2.11525   2.11731   2.12102   2.12404   2.12542
 Alpha virt. eigenvalues --    2.12563   2.12746   2.12923   2.13285   2.13507
 Alpha virt. eigenvalues --    2.13842   2.14156   2.14250   2.14475   2.14701
 Alpha virt. eigenvalues --    2.15130   2.15436   2.15740   2.16183   2.16606
 Alpha virt. eigenvalues --    2.16727   2.17167   2.17548   2.17740   2.17834
 Alpha virt. eigenvalues --    2.18425   2.18840   2.19089   2.19333   2.19743
 Alpha virt. eigenvalues --    2.20120   2.20319   2.20775   2.21482   2.21729
 Alpha virt. eigenvalues --    2.21947   2.22035   2.22338   2.23036   2.23350
 Alpha virt. eigenvalues --    2.23458   2.23757   2.23788   2.24350   2.24490
 Alpha virt. eigenvalues --    2.24806   2.25235   2.25466   2.25648   2.25863
 Alpha virt. eigenvalues --    2.26583   2.26728   2.27064   2.27355   2.27729
 Alpha virt. eigenvalues --    2.28017   2.28125   2.28437   2.28762   2.28977
 Alpha virt. eigenvalues --    2.29458   2.29573   2.30054   2.30130   2.30350
 Alpha virt. eigenvalues --    2.30552   2.31034   2.31151   2.31388   2.31597
 Alpha virt. eigenvalues --    2.31681   2.32456   2.32845   2.32861   2.33267
 Alpha virt. eigenvalues --    2.33545   2.33704   2.34274   2.34490   2.34570
 Alpha virt. eigenvalues --    2.34838   2.35157   2.35333   2.35706   2.35877
 Alpha virt. eigenvalues --    2.36047   2.36559   2.36653   2.36776   2.37423
 Alpha virt. eigenvalues --    2.37527   2.37655   2.37859   2.38298   2.38671
 Alpha virt. eigenvalues --    2.39033   2.39199   2.39345   2.39606   2.39681
 Alpha virt. eigenvalues --    2.39906   2.40065   2.40317   2.40519   2.40900
 Alpha virt. eigenvalues --    2.41053   2.41193   2.41832   2.41997   2.42108
 Alpha virt. eigenvalues --    2.42441   2.42719   2.43186   2.43488   2.43650
 Alpha virt. eigenvalues --    2.44042   2.44304   2.44677   2.44767   2.45391
 Alpha virt. eigenvalues --    2.45983   2.46137   2.46305   2.46869   2.47057
 Alpha virt. eigenvalues --    2.47356   2.47643   2.48081   2.48409   2.49093
 Alpha virt. eigenvalues --    2.49467   2.49813   2.50161   2.50530   2.50785
 Alpha virt. eigenvalues --    2.51159   2.51343   2.51772   2.52079   2.52559
 Alpha virt. eigenvalues --    2.52711   2.53309   2.53374   2.53872   2.54603
 Alpha virt. eigenvalues --    2.54857   2.55290   2.55434   2.55915   2.56119
 Alpha virt. eigenvalues --    2.56497   2.56830   2.57102   2.57496   2.57767
 Alpha virt. eigenvalues --    2.58178   2.58647   2.58873   2.58887   2.59694
 Alpha virt. eigenvalues --    2.59824   2.59974   2.60268   2.60298   2.60474
 Alpha virt. eigenvalues --    2.60908   2.61032   2.61189   2.61333   2.61704
 Alpha virt. eigenvalues --    2.62044   2.62458   2.62966   2.63088   2.63418
 Alpha virt. eigenvalues --    2.63810   2.64056   2.64290   2.64559   2.64789
 Alpha virt. eigenvalues --    2.65157   2.65310   2.65632   2.65834   2.65978
 Alpha virt. eigenvalues --    2.66378   2.66439   2.66790   2.67360   2.67551
 Alpha virt. eigenvalues --    2.67687   2.68013   2.68270   2.68468   2.69097
 Alpha virt. eigenvalues --    2.69373   2.69745   2.69922   2.70233   2.70581
 Alpha virt. eigenvalues --    2.70748   2.71025   2.71413   2.71422   2.71583
 Alpha virt. eigenvalues --    2.71851   2.72154   2.72556   2.72664   2.72926
 Alpha virt. eigenvalues --    2.72984   2.73115   2.73585   2.73882   2.74271
 Alpha virt. eigenvalues --    2.74510   2.74549   2.74803   2.75018   2.75122
 Alpha virt. eigenvalues --    2.75457   2.75630   2.75753   2.75950   2.76061
 Alpha virt. eigenvalues --    2.76524   2.76631   2.77059   2.77400   2.77737
[...]
 Alpha virt. eigenvalues --    4.55727   4.55808   4.56107   4.56642   4.56910
 Alpha virt. eigenvalues --    4.57448   4.57877   4.58437   4.58568   4.59050
 Alpha virt. eigenvalues --    4.59244   4.60059   4.60770   4.61346   4.61482
 Alpha virt. eigenvalues --    4.61830   4.62609   4.62833   4.63318   4.63615
 Alpha virt. eigenvalues --    4.63966   4.64541   4.64696   4.64861   4.65267
 Alpha virt. eigenvalues --    4.65381   4.65680   4.65798   4.66036   4.66085
 Alpha virt. eigenvalues --    4.66200   4.66687   4.66824   4.67467   4.67662
 Alpha virt. eigenvalues --    4.68114   4.68363   4.68643   4.68887   4.69253
 Alpha virt. eigenvalues --    4.69455   4.69897   4.69953   4.70651   4.70892
 Alpha virt. eigenvalues --    4.71173   4.71652   4.71848   4.72216   4.72585
 Alpha virt. eigenvalues --    4.72869   4.72994   4.73385   4.73743   4.74064
 Alpha virt. eigenvalues --    4.74722   4.74870   4.75402   4.75705   4.76286
 Alpha virt. eigenvalues --    4.76433   4.76643   4.76758   4.76835   4.77285
 Alpha virt. eigenvalues --    4.77511   4.77661   4.78048   4.78687   4.79159
 Alpha virt. eigenvalues --    4.79471   4.79720   4.80012   4.80514   4.80701
 Alpha virt. eigenvalues --    4.80964   4.81238   4.81629   4.82354   4.82582
 Alpha virt. eigenvalues --    4.83124   4.83339   4.84072   4.84218   4.84689
 Alpha virt. eigenvalues --    4.85475   4.85518   4.86118   4.86446   4.87073
 Alpha virt. eigenvalues --    4.87461   4.87909   4.88293   4.88468   4.89307
 Alpha virt. eigenvalues --    4.89586   4.89737   4.89980   4.90252   4.90691
 Alpha virt. eigenvalues --    4.91315   4.92007   4.92553   4.93076   4.93513
 Alpha virt. eigenvalues --    4.93582   4.93811   4.93860   4.94151   4.94816
 Alpha virt. eigenvalues --    4.95339   4.96107   4.96409   4.96771   4.97487
 Alpha virt. eigenvalues --    4.98296   4.98493   4.98945   4.99548   4.99925
 Alpha virt. eigenvalues --    5.00176   5.00967   5.01449   5.02237   5.02618
 Alpha virt. eigenvalues --    5.02971   5.03352   5.03480   5.04191   5.04314
 Alpha virt. eigenvalues --    5.04990   5.05590   5.06150   5.06463   5.06816
 Alpha virt. eigenvalues --    5.07811   5.08204   5.08363   5.08662   5.08823
 Alpha virt. eigenvalues --    5.09550   5.10355   5.10816   5.10972   5.11303
 Alpha virt. eigenvalues --    5.11674   5.11772   5.12685   5.12847   5.13477
 Alpha virt. eigenvalues --    5.13567   5.14255   5.14406   5.14962   5.15593
 Alpha virt. eigenvalues --    5.15933   5.16104   5.16440   5.16701   5.17075
 Alpha virt. eigenvalues --    5.17124   5.17433   5.18058   5.18378   5.18764
 Alpha virt. eigenvalues --    5.19034   5.19259   5.19455   5.19824   5.20076
 Alpha virt. eigenvalues --    5.20459   5.20636   5.20885   5.21544   5.21657
 Alpha virt. eigenvalues --    5.21801   5.21904   5.22185   5.22685   5.22867
 Alpha virt. eigenvalues --    5.23279   5.23631   5.23764   5.24100   5.24361
 Alpha virt. eigenvalues --    5.24786   5.25388   5.25536   5.26254   5.26441
 Alpha virt. eigenvalues --    5.26719   5.26854   5.27113   5.27189   5.27794
 Alpha virt. eigenvalues --    5.27913   5.28632   5.28948   5.29359   5.29905
 Alpha virt. eigenvalues --    5.30214   5.30358   5.30538   5.30729   5.31002
 Alpha virt. eigenvalues --    5.31574   5.31907   5.32044   5.32661   5.33095
 Alpha virt. eigenvalues --    5.33273   5.33826   5.34031   5.34285   5.34782
 Alpha virt. eigenvalues --    5.35540   5.35634   5.35853   5.36348   5.36507
 Alpha virt. eigenvalues --    5.37049   5.37414   5.37830   5.38056   5.38652
 Alpha virt. eigenvalues --    5.38908   5.39506   5.39657   5.39866   5.40370
 Alpha virt. eigenvalues --    5.40920   5.41305   5.41880   5.42145   5.42550
 Alpha virt. eigenvalues --    5.42825   5.43474   5.43731   5.44556   5.45299
 Alpha virt. eigenvalues --    5.45733   5.45785   5.46322   5.46460   5.47231
 Alpha virt. eigenvalues --    5.47530   5.47874   5.48566   5.48760   5.49367
 Alpha virt. eigenvalues --    5.49503   5.50084   5.50602   5.50820   5.51458
 Alpha virt. eigenvalues --    5.52087   5.53036   5.53723   5.54388   5.54614
 Alpha virt. eigenvalues --    5.55514   5.56079   5.56521   5.56673   5.57308
 Alpha virt. eigenvalues --    5.57481   5.57848   5.58489   5.59048   5.59147
 Alpha virt. eigenvalues --    5.59454   5.59690   5.59811   5.60612   5.60681
 Alpha virt. eigenvalues --    5.60909   5.61519   5.62154   5.62748   5.62981
 Alpha virt. eigenvalues --    5.63215   5.63602   5.64232   5.64899   5.65294
 Alpha virt. eigenvalues --    5.65496   5.66189   5.66602   5.67074   5.67394
 Alpha virt. eigenvalues --    5.68635   5.69328   5.70062   5.70462   5.70639
 Alpha virt. eigenvalues --    5.71637   5.72132   5.72872   5.72983   5.73885
 Alpha virt. eigenvalues --    5.74445   5.75274   5.75577   5.77015   5.77415
 Alpha virt. eigenvalues --    5.77615   5.78987   5.80225   5.80715   5.81580
 Alpha virt. eigenvalues --    5.81803   5.82174   5.82568   5.83727   5.84642
 Alpha virt. eigenvalues --    5.85554   5.86970   5.87718   5.88769   5.89070
 Alpha virt. eigenvalues --    5.90681   5.91168   5.95307   5.95556   5.95947
 Alpha virt. eigenvalues --    5.98905   5.99197   6.01214   6.01587   6.02223
 Alpha virt. eigenvalues --    6.02814   6.03893   6.04195   6.05853   6.06344
 Alpha virt. eigenvalues --    6.07209   6.07365   6.08646   6.10307   6.11572
 Alpha virt. eigenvalues --    6.12795   6.15163   6.15602   6.16395   6.19328
 Alpha virt. eigenvalues --    6.21781   6.23760   6.24592   6.26846   6.35618
 Alpha virt. eigenvalues --    6.39992   6.42183   6.43720   6.44672   6.46746
 Alpha virt. eigenvalues --    6.47601   6.52892   6.54134   6.55994   6.56448
 Alpha virt. eigenvalues --    6.56997   6.59125   6.62654   6.67126   6.69140
 Alpha virt. eigenvalues --    6.70962   6.74889   6.76862   6.77462   6.78313
 Alpha virt. eigenvalues --    6.78776   6.79364   6.79725   6.82315   6.82594
 Alpha virt. eigenvalues --    6.82891   6.83043   6.83600   6.83901   6.84378
 Alpha virt. eigenvalues --    6.84582   6.84678   6.84857   6.85032   6.85066
 Alpha virt. eigenvalues --    6.85686   6.85800   6.86005   6.86488   6.86570
 Alpha virt. eigenvalues --    6.87056   6.87124   6.87389   6.88173   6.89782
 Alpha virt. eigenvalues --    6.93838   6.94558   6.97101   6.97196   6.97463
 Alpha virt. eigenvalues --    6.97651   6.98857   6.99193   7.00688   7.01256
 Alpha virt. eigenvalues --    7.02364   7.05023   7.05800   7.07010   7.08280
 Alpha virt. eigenvalues --    7.09178   7.10160   7.12013   7.12823   7.13167
 Alpha virt. eigenvalues --    7.13293   7.13479   7.20048   7.22578   7.25357
 Alpha virt. eigenvalues --    7.34805   7.35719   7.36416   7.36504   7.36823
 Alpha virt. eigenvalues --    7.40968   7.43267   7.43733   7.47313   7.48709
 Alpha virt. eigenvalues --    7.48751   7.54578   7.58938   7.59110   7.59221
 Alpha virt. eigenvalues --    7.62358   7.62833   7.65947   7.87964   7.89521
 Alpha virt. eigenvalues --    7.97656   8.04208   8.26776   8.29959   8.30102
 Alpha virt. eigenvalues --    8.31138   8.31359   8.32029   8.39878   8.45107
 Alpha virt. eigenvalues --    8.46141   8.49051   8.49349   8.57495   8.57692
 Alpha virt. eigenvalues --    8.62752   8.67462   8.68052   8.75211   8.75491
 Alpha virt. eigenvalues --    8.77888   8.77944   8.78776   8.88904   8.89739
 Alpha virt. eigenvalues --    8.94807   8.95474   8.98129   9.00106   9.01581
 Alpha virt. eigenvalues --    9.06029   9.07735   9.09592   9.11841   9.17031
 Alpha virt. eigenvalues --    9.17855   9.19063   9.53152   9.59067   9.73705
 Alpha virt. eigenvalues --    9.82772  10.15653  10.18681  22.57227  22.65488
 Alpha virt. eigenvalues --   22.66653  22.70797  22.79315  22.84207  22.88512
 Alpha virt. eigenvalues --   22.88588  22.92482  22.94796  22.97116  23.01578
 Alpha virt. eigenvalues --   23.02182  23.03784  23.05998  23.07023  23.08130
 Alpha virt. eigenvalues --   23.08820  23.09039  23.10332  23.11985  23.13553
 Alpha virt. eigenvalues --   23.14918  23.16239  23.17597  23.18568  23.19410
 Alpha virt. eigenvalues --   23.20091  23.20867  23.21749  23.23556  23.24239
 Alpha virt. eigenvalues --   23.25032  23.25537  23.27193  23.27821  23.29882
 Alpha virt. eigenvalues --   23.31151  23.32416  23.33150  23.34051  23.35317
 Alpha virt. eigenvalues --   23.38250  23.44309  23.44526  23.45859  23.49650
 Alpha virt. eigenvalues --   23.54149  23.55566  23.61096  23.62403  23.70349
 Alpha virt. eigenvalues --   23.78804  23.81716  23.90736  24.12498  24.12706
 Alpha virt. eigenvalues --   24.16322  24.21923  24.27486  24.33991  24.45058
 Alpha virt. eigenvalues --   32.56236  32.88115  33.29448  34.59583  34.64855
 Alpha virt. eigenvalues --   34.91147  42.93066  43.91286  44.04585  44.15414
 Alpha virt. eigenvalues --   44.24133  44.30563  57.10195  57.21910  57.23064
 Alpha virt. eigenvalues --   57.27412  57.51204  57.52177  57.55773 117.85245
          Condensed to atoms (all electrons):
 Mulliken charges:
               1
     1  C    0.152062
     2  C    0.088309
     3  C   -0.062707
     4  C   -0.071365
     5  C    0.190312
     6  N   -0.247180
     7  H    0.127331
     8  C   -0.208147
     9  C    0.145259
    10  C   -0.170702
    11  C   -0.201169
    12  C   -0.117134
    13  H    0.151342
    14  H    0.159898
    15  H    0.151371
    16  C    0.382749
    17  C    0.108619
    18  C   -0.198259
    19  C   -0.228758
    20  C   -0.164141
    21  H    0.161574
    22  C   -0.162474
    23  H    0.148120
    24  C   -0.167005
    25  H    0.143881
    26  H    0.151371
    27  H    0.152856
    28  F   -0.216234
    29  C   -0.260703
    30  H    0.123719
    31  H    0.107932
    32  H    0.097370
    33  C    0.001609
    34  C   -0.037620
    35  C   -0.035876
    36  H    0.145179
    37  H    0.088615
    38  C    0.008515
    39  H    0.110328
    40  H    0.089538
    41  H    0.093345
    42  H    0.114475
    43  H    0.082004
    44  H    0.109651
    45  N    0.054852
    46  O   -0.335684
    47  I   -0.032182
    48  H    0.177608
    49  C   -0.123317
    50  C   -0.203067
    51  C   -0.061605
    52  C   -0.064073
    53  C   -0.125472
    54  C   -0.148666
    55  H    0.153402
    56  H    0.159520
    57  C    0.116271
    58  C   -0.081561
    59  H    0.146758
    60  H    0.152673
    61  C   -0.068171
    62  C   -0.063614
    63  H    0.145774
    64  C    0.142585
    65  C   -0.182167
    66  C   -0.099418
    67  C   -0.152851
    68  C   -0.007053
    69  C   -0.187748
    70  C   -0.163649
    71  C   -0.161176
    72  C   -0.140460
    73  H    0.158803
    74  H    0.150966
    75  C   -0.137639
    76  H    0.147931
    77  H    0.155101
    78  H    0.154042
    79  S    0.878498
    80  O   -0.524866
    81  O   -0.524819
    82  S    0.888482
    83  O   -0.494230
    84  O   -0.548419
    85  N   -0.466113
    86  C    0.082722
    87  C    0.131751
    88  C    0.258000
    89  C    0.200238
    90  C   -0.131415
    91  C   -0.198005
    92  C   -0.173413
    93  C   -0.102715
    94  C   -0.136345
    95  H    0.162669
    96  C   -0.141355
    97  H    0.156965
    98  H    0.156823
    99  H    0.159486
   100  C   -0.074075
   101  C   -0.155628
   102  C   -0.184839
   103  C   -0.103650
   104  C   -0.129833
   105  H    0.165669
   106  C   -0.139748
   107  H    0.159605
   108  H    0.157682
   109  H    0.158520
   110  C    0.567777
   111  F   -0.192927
   112  F   -0.191383
   113  F   -0.186647
   114  C    0.570330
   115  F   -0.186400
   116  F   -0.197930
   117  F   -0.185041
 Sum of Mulliken charges =   0.00000
 Mulliken charges with hydrogens summed into heavy atoms:
               1
     1  C    0.152062
     2  C    0.265916
     3  C   -0.062707
     4  C    0.055966
     5  C    0.190312
     6  N   -0.247180
     8  C   -0.208147
     9  C    0.145259
    10  C   -0.019359
    11  C   -0.049798
    12  C    0.042764
    16  C    0.382749
    17  C    0.108619
    18  C   -0.036685
    19  C   -0.080637
    20  C   -0.020260
    22  C   -0.011103
    24  C   -0.014150
    28  F   -0.216234
    29  C    0.068318
    33  C    0.235403
    34  C    0.162246
    35  C    0.171944
    38  C    0.200171
    45  N    0.054852
    46  O   -0.335684
    47  I   -0.032182
    49  C    0.030086
    50  C   -0.043547
    51  C   -0.061605
    52  C   -0.064073
    53  C    0.021286
    54  C    0.004008
    57  C    0.116271
    58  C    0.064213
    61  C   -0.068171
    62  C   -0.063614
    64  C    0.142585
    65  C   -0.182167
    66  C   -0.099418
    67  C   -0.152851
    68  C   -0.007053
    69  C   -0.028945
    70  C   -0.012683
    71  C   -0.013245
    72  C    0.014642
    75  C    0.016403
    79  S    0.878498
    80  O   -0.524866
    81  O   -0.524819
    82  S    0.888482
    83  O   -0.494230
    84  O   -0.548419
    85  N   -0.466113
    86  C    0.082722
    87  C    0.131751
    88  C    0.258000
    89  C    0.200238
    90  C   -0.131415
    91  C   -0.198005
    92  C   -0.010744
    93  C    0.054250
    94  C    0.020478
    96  C    0.018131
   100  C   -0.074075
   101  C   -0.155628
   102  C   -0.019169
   103  C    0.055955
   104  C    0.027849
   106  C    0.018772
   110  C    0.567777
   111  F   -0.192927
   112  F   -0.191383
   113  F   -0.186647
   114  C    0.570330
   115  F   -0.186400
   116  F   -0.197930
   117  F   -0.185041
 Electronic spatial extent (au):  <R**2>=          70321.9893
 Charge=              0.0000 electrons
 Dipole moment (field-independent basis, Debye):
    X=            -13.5840    Y=             -3.4826    Z=              4.9406  Tot=             14.8682
 Quadrupole moment (field-independent basis, Debye-Ang):
   XX=           -457.3659   YY=           -429.6051   ZZ=           -439.2413
   XY=              1.9858   XZ=             11.2708   YZ=              9.5512
 Traceless Quadrupole moment (field-independent basis, Debye-Ang):
   XX=            -15.2951   YY=             12.4657   ZZ=              2.8294
   XY=              1.9858   XZ=             11.2708   YZ=              9.5512
 Octapole moment (field-independent basis, Debye-Ang**2):
  XXX=            -56.5131  YYY=             61.8401  ZZZ=            -50.1255  XYY=            240.5840
  XXY=           -255.9402  XXZ=            -92.8413  XZZ=           -158.1570  YZZ=            -56.7616
  YYZ=             13.5973  XYZ=            -98.0732
 Hexadecapole moment (field-independent basis, Debye-Ang**3):
 XXXX=         -58093.7999 YYYY=         -21660.2833 ZZZZ=         -10531.9138 XXXY=          -3149.3151
 XXXZ=            154.8039 YYYX=          -1585.9737 YYYZ=           -255.2280 ZZZX=           -602.8909
 ZZZY=            342.6707 XXYY=         -12885.4638 XXZZ=         -11290.5539 YYZZ=          -5119.6680
 XXYZ=           -385.9264 YYXZ=           -378.6756 ZZXY=            -62.7188
 N-N= 1.540432545246D+04 E-N=-4.163537968472D+04  KE= 4.441809070782D+03
 Leave Link  601 at Wed Jun 12 04:33:01 2024, MaxMem=  8589934592 cpu:              30.0 elap:               1.6
 (Enter /opt/packages/gaussian/g16RevC.01/g16/l9999.exe)
 Unable to Open any file for archive entry.
 1\1\GINC-R013\SP\RB3LYP\def2TZVPP\C60H39F7I1N3O5S2\BIM2\12-Jun-2024\0\
 \#p b3lyp def2tzvpp scf=maxcycle=128 nosymm scrf=(smd,solvent=propylet
 hanoate) empiricaldispersion=gd3bj\\Title Card Required\\0,1\C,0,-1.93
 8704,-2.301147,0.127634\C,0,-0.675975,-2.828764,0.740994\C,0,-0.257804
 ,-2.165342,1.999809\C,0,-0.999927,-1.156612,2.503367\C,0,-2.234261,-0.
 784079,1.852775\N,0,-2.644717,-1.383298,0.686915\H,0,-0.644127,-0.6342
 4,3.386279\C,0,-2.438005,-2.87226,-1.154765\C,0,-3.821751,-3.028992,-1
 .421947\C,0,-4.231925,-3.506677,-2.671998\C,0,-1.951638,-3.68845,-3.41
 9969\C,0,-3.312188,-3.824419,-3.667222\H,0,-5.298846,-3.640827,-2.8556
 66\H,0,-3.656026,-4.192545,-4.635078\H,0,-1.190612,-3.933037,-4.161072
 \C,0,-1.542976,-3.238198,-2.173851\C,0,-4.896651,-2.756568,-0.425354\C
 ,0,-5.977569,-1.946598,-0.790185\C,0,-4.891319,-3.351099,0.844511\C,0,
 -7.021531,-1.706977,0.10593\H,0,-5.993502,-1.494103,-1.783952\C,0,-5.9
 3716,-3.121386,1.733764\H,0,-4.060905,-4.002995,1.12917\C,0,-7.003772,
 -2.293199,1.36962\H,0,-7.84952,-1.059755,-0.189824\H,0,-5.925137,-3.59
 568,2.716968\H,0,-7.819725,-2.11103,2.071486\F,0,-0.227783,-3.166645,-
 1.969525\C,0,1.003093,-2.619719,2.65405\H,0,0.811663,-3.538709,3.23061
 \H,0,1.767775,-2.845159,1.898237\H,0,1.389335,-1.843677,3.324676\C,0,-
 4.332092,0.481655,1.736336\C,0,-2.742044,0.988172,3.499146\C,0,-5.4047
 11,0.402523,2.816394\H,0,-4.546148,-0.201628,0.908665\H,0,-4.269578,1.
 509965,1.350337\C,0,-3.889739,0.883215,4.496754\H,0,-1.795378,0.715229
 ,3.968164\H,0,-2.665825,2.026474,3.140422\H,0,-5.503131,-0.643688,3.16
 0188\H,0,-6.364386,0.7238,2.391123\H,0,-3.940314,-0.149248,4.892174\H,
 0,-3.702735,1.569461,5.332653\N,0,-3.028248,0.155648,2.328315\O,0,-5.1
 06137,1.245136,3.901609\I,0,-0.951921,-4.956506,1.078754\H,0,0.15456,-
 2.791176,0.026406\C,0,2.67047,5.805032,-1.803016\C,0,2.114613,4.749233
 ,-1.120506\C,0,2.912294,3.638977,-0.720839\C,0,4.291901,3.639274,-1.07
 6404\C,0,4.842318,4.751702,-1.772874\C,0,4.050396,5.815321,-2.124677\H
 ,0,2.039802,6.642309,-2.105949\H,0,1.047902,4.758396,-0.89776\C,0,2.38
 2263,2.513452,-0.001239\C,0,5.094309,2.52143,-0.754058\H,0,5.903818,4.
 732456,-2.027326\H,0,4.475615,6.664164,-2.662355\C,0,4.569026,1.412844
 ,-0.115431\C,0,3.18948,1.426149,0.267297\H,0,6.149625,2.523967,-1.0332
 03\C,0,0.931705,2.572923,0.380984\C,0,-0.015247,1.770767,-0.228613\C,0
 ,0.523608,3.552379,1.347009\C,0,-1.414739,2.053456,-0.077243\C,0,-0.86
 4903,3.781913,1.557846\C,0,1.460648,4.288917,2.123009\C,0,-1.807794,3.
 056926,0.790871\C,0,-1.280024,4.749531,2.514839\C,0,1.032035,5.205906,
 3.05361\H,0,2.527645,4.10621,1.989531\H,0,-2.867589,3.310563,0.868892\
 C,0,-0.351137,5.445556,3.248455\H,0,-2.349347,4.923193,2.654424\H,0,1.
 763653,5.752839,3.650268\H,0,-0.673836,6.183033,3.984994\S,0,2.390174,
 0.013092,1.014381\O,0,1.715583,0.522218,2.176942\O,0,3.363607,-1.00718
 2,1.251708\S,0,0.573197,0.336594,-1.138256\O,0,1.399265,0.836418,-2.19
 5028\O,0,-0.569075,-0.440722,-1.523113\N,0,1.375021,-0.511752,-0.07684
 9\C,0,5.470686,0.323509,0.12059\C,0,6.331677,-0.520829,0.252605\C,0,-2
 .439943,1.464435,-0.889534\C,0,-3.370407,1.131767,-1.594999\C,0,-4.376
 406,0.704121,-2.519409\C,0,-5.700023,1.192795,-2.49012\C,0,-4.022068,-
 0.223508,-3.511681\C,0,-6.633629,0.760733,-3.427407\C,0,-4.960013,-0.6
 47072,-4.449703\H,0,-2.999584,-0.607134,-3.525179\C,0,-6.264889,-0.158
 344,-4.410854\H,0,-7.652697,1.14593,-3.391161\H,0,-4.666637,-1.3671,-5
 .215456\H,0,-6.999986,-0.488994,-5.145498\C,0,7.294584,-1.564588,0.434
 786\C,0,8.646555,-1.400385,0.070588\C,0,6.886946,-2.787973,0.988685\C,
 0,9.559055,-2.434155,0.257192\C,0,7.804637,-3.818276,1.172651\H,0,5.83
 9595,-2.909725,1.267517\C,0,9.139237,-3.644883,0.808422\H,0,10.60114,-
 2.29249,-0.029599\H,0,7.473302,-4.764359,1.603372\H,0,9.858596,-4.4520
 77,0.951709\C,0,9.097597,-0.091656,-0.524722\F,0,8.884032,0.935625,0.3
 04805\F,0,8.450302,0.192722,-1.65974\F,0,10.401585,-0.097008,-0.810456
 \C,0,-6.13037,2.142162,-1.404337\F,0,-5.309098,3.186243,-1.274512\F,0,
 -6.167281,1.532998,-0.206895\F,0,-7.353182,2.629105,-1.620295\\Version
 =ES64L-G16RevC.01\HF=-4645.0136791\RMSD=2.778e-09\Dipole=-5.3443564,-1
 .3701526,1.9437631\Quadrupole=-11.3715191,9.2679081,2.103611,1.4763955
 ,8.3795397,7.1010916\PG=C01 [X(C60H39F7I1N3O5S2)]\\@
 The archive entry for this job was punched.


 IF OTHER PEOPLE ARE GOING TO TALK, CONVERSATION IS SIMPLY IMPOSSIBLE.

                                               -- WHISTLER'S PRINCIPLE
 Job cpu time:       2 days  1 hours 33 minutes 22.6 seconds.
 Elapsed time:       0 days  1 hours 33 minutes 45.3 seconds.
 File lengths (MBytes):  RWF=   5922 Int=      0 D2E=      0 Chk=    522 Scr=      1
 Normal termination of Gaussian 16 at Wed Jun 12 04:33:01 2024.
