 Entering Gaussian System, Link 0=g16
 Initial command:
 /ihome/crc/install/gaussian/c01/avx2/tar/g16/l1.exe "/scratch/slurm-18032148/Gau-35154.inp" -scrdir="/scratch/slurm-18032148/"
 Entering Link 1 = /ihome/crc/install/gaussian/c01/avx2/tar/g16/l1.exe PID=     35155.
  
 Copyright (c) 1988-2019, Gaussian, Inc.  All Rights Reserved.
  
 This is part of the Gaussian(R) 16 program.  It is based on
 the Gaussian(R) 09 system (copyright 2009, Gaussian, Inc.),
 the Gaussian(R) 03 system (copyright 2003, Gaussian, Inc.),
 the Gaussian(R) 98 system (copyright 1998, Gaussian, Inc.),
 the Gaussian(R) 94 system (copyright 1995, Gaussian, Inc.),
 the Gaussian 92(TM) system (copyright 1992, Gaussian, Inc.),
 the Gaussian 90(TM) system (copyright 1990, Gaussian, Inc.),
 the Gaussian 88(TM) system (copyright 1988, Gaussian, Inc.),
 the Gaussian 86(TM) system (copyright 1986, Carnegie Mellon
 University), and the Gaussian 82(TM) system (copyright 1983,
 Carnegie Mellon University). Gaussian is a federally registered
 trademark of Gaussian, Inc.
  
 This software contains proprietary and confidential information,
 including trade secrets, belonging to Gaussian, Inc.
  
 This software is provided under written license and may be
 used, copied, transmitted, or stored only in accord with that
 written license.
  
 The following legend is applicable only to US Government
 contracts under FAR:
  
                    RESTRICTED RIGHTS LEGEND
  
 Use, reproduction and disclosure by the US Government is
 subject to restrictions as set forth in subparagraphs (a)
 and (c) of the Commercial Computer Software - Restricted
 Rights clause in FAR 52.227-19.
  
 Gaussian, Inc.
 340 Quinnipiac St., Bldg. 40, Wallingford CT 06492
  
  
 ---------------------------------------------------------------
 Warning -- This program may not be used in any manner that
 competes with the business of Gaussian, Inc. or will provide
 assistance to any competitor of Gaussian, Inc.  The licensee
 of this program is prohibited from giving any competitor of
 Gaussian, Inc. access to this program.  By using this program,
 the user acknowledges that Gaussian, Inc. is engaged in the
 business of creating and licensing software in the field of
 computational chemistry and represents and warrants to the
 licensee that it is not a competitor of Gaussian, Inc. and that
 it will not use this program in any manner prohibited above.
 ---------------------------------------------------------------
  

 Cite this work as:
 Gaussian 16, Revision C.01,
 M. J. Frisch, G. W. Trucks, H. B. Schlegel, G. E. Scuseria, 
 M. A. Robb, J. R. Cheeseman, G. Scalmani, V. Barone, 
 G. A. Petersson, H. Nakatsuji, X. Li, M. Caricato, A. V. Marenich, 
 J. Bloino, B. G. Janesko, R. Gomperts, B. Mennucci, H. P. Hratchian, 
 J. V. Ortiz, A. F. Izmaylov, J. L. Sonnenberg, D. Williams-Young, 
 F. Ding, F. Lipparini, F. Egidi, J. Goings, B. Peng, A. Petrone, 
 T. Henderson, D. Ranasinghe, V. G. Zakrzewski, J. Gao, N. Rega, 
 G. Zheng, W. Liang, M. Hada, M. Ehara, K. Toyota, R. Fukuda, 
 J. Hasegawa, M. Ishida, T. Nakajima, Y. Honda, O. Kitao, H. Nakai, 
 T. Vreven, K. Throssell, J. A. Montgomery, Jr., J. E. Peralta, 
 F. Ogliaro, M. J. Bearpark, J. J. Heyd, E. N. Brothers, K. N. Kudin, 
 V. N. Staroverov, T. A. Keith, R. Kobayashi, J. Normand, 
 K. Raghavachari, A. P. Rendell, J. C. Burant, S. S. Iyengar, 
 J. Tomasi, M. Cossi, J. M. Millam, M. Klene, C. Adamo, R. Cammi, 
 J. W. Ochterski, R. L. Martin, K. Morokuma, O. Farkas, 
 J. B. Foresman, and D. J. Fox, Gaussian, Inc., Wallingford CT, 2019.
 
 ******************************************
 Gaussian 16:  ES64L-G16RevC.01  3-Jul-2019
                 9-Feb-2025 
 ******************************************
 %nprocshared=32
 Will use up to   32 processors via shared memory.
 %mem=54GB
 ----------------------------------------------------------------------
 #p b3lyp def2tzvpp scf=maxcycle=128 nosymm scrf=(smd,solvent=propyleth
 anoate) empiricaldispersion=gd3bj
 ----------------------------------------------------------------------
 1/38=1,172=1/1;
 2/12=2,15=1,17=6,18=5,40=1/2;
 3/5=44,7=202,11=2,25=1,30=1,70=32201,72=169,74=-5,124=41/1,2,3;
 4//1;
 5/5=2,7=128,38=5,53=169/2;
 6/7=2,8=2,9=2,10=2,28=1/1;
 99/5=1,9=1/99;
 Leave Link    1 at Sun Feb  9 10:18:52 2025, MaxMem=  7247757312 cpu:               0.6 elap:               0.0
 (Enter /ihome/crc/install/gaussian/c01/avx2/tar/g16/l101.exe)
 -------------------------
 alkyneCF3_S-ax-R_02_rotSS
 -------------------------
 Symbolic Z-matrix:
 Charge =  0 Multiplicity = 1
 C                     2.01152  -2.03794  -0.97847 
 C                     0.83157  -2.33736  -1.85008 
 C                    -0.48367  -2.09973  -1.20574 
 C                    -0.53606  -1.92712   0.13172 
 C                     0.68536  -1.87573   0.90214 
 N                     1.92561  -1.86396   0.29032 
 H                    -1.49267  -1.70999   0.60089 
 C                     3.36565  -2.03741  -1.59697 
 C                     3.73186  -1.20069  -2.67363 
 C                     5.01445  -1.33964  -3.22458 
 C                     5.56643  -3.10116  -1.66541 
 C                     5.91543  -2.28052  -2.73519 
 H                     5.31438  -0.67333  -4.03444 
 H                     6.90693  -2.36771  -3.18219 
 H                     6.24389  -3.85031  -1.25485 
 C                     4.30513  -2.95391  -1.11202 
 C                     2.81974  -0.15752  -3.2154 
 C                     2.75278   0.05715  -4.60171 
 C                     2.03931   0.6427   -2.36724 
 C                     1.92515   1.04674  -5.12605 
 H                     3.34132  -0.57021  -5.274 
 C                     1.21608   1.638    -2.89621 
 H                     2.07578   0.51836  -1.2816 
 C                     1.15689   1.84226  -4.2738 
 H                     1.87701   1.19476  -6.2063 
 H                     0.61305   2.2503   -2.22369 
 H                     0.50808   2.61946  -4.68109 
 F                     3.95872  -3.75903  -0.10378 
 C                    -1.68689  -1.98903  -2.07333 
 H                    -1.67031  -0.99933  -2.5595 
 H                    -1.68984  -2.76323  -2.85479 
 H                    -2.60773  -2.04747  -1.4801 
 C                    -0.52033  -1.84137   3.04756 
 C                     1.8917   -1.50241   2.99678 
 C                    -0.28491  -2.84321   4.17321 
 H                    -1.38664  -2.153     2.45918 
 H                    -0.70338  -0.83264   3.44407 
 C                     2.00618  -2.51813   4.12469 
 H                     2.76493  -1.53669   2.3421 
 H                     1.7763   -0.48846   3.4108 
 H                    -0.18982  -3.85916   3.74441 
 H                    -1.15091  -2.82912   4.84716 
 H                     2.18355  -3.52293   3.69601 
 H                     2.86     -2.25508   4.76217 
 N                     0.68182  -1.7711    2.21092 
 O                     0.8538   -2.52087   4.92593 
 I                     0.98319  -4.46392  -2.32283 
 H                     0.91005  -1.87483  -2.84013 
 C                    -2.90973   7.34471   0.54929 
 C                    -2.86427   5.9859    0.75102 
 C                    -1.62703   5.28387   0.70027 
 C                    -0.44465   6.01837   0.40098 
 C                    -0.52001   7.4261    0.20625 
 C                    -1.7256    8.07688   0.28391 
 H                    -3.86819   7.86461   0.58803 
 H                    -3.78674   5.43751   0.94222 
 C                    -1.53644   3.86695   0.9034 
 C                     0.78351   5.33137   0.26417 
 H                     0.3993    7.97151  -0.01591 
 H                    -1.77902   9.15569   0.1295 
 C                     0.86459   3.96016   0.41632 
 C                    -0.31682   3.22386   0.76373 
 H                     1.68379   5.89319   0.0096 
 C                    -2.78965   3.0965    1.2073 
 C                    -3.28238   2.14955   0.32601 
 C                    -3.41894   3.28311   2.48352 
 C                    -4.37718   1.30351   0.69338 
 C                    -4.56791   2.50617   2.80679 
 C                    -2.92344   4.19188   3.46134 
 C                    -5.01392   1.51569   1.9011 
 C                    -5.21493   2.69067   4.06082 
 C                    -3.56281   4.34368   4.66865 
 H                    -2.02298   4.7695    3.25346 
 H                    -5.85453   0.87873   2.18164 
 C                    -4.72761   3.5951    4.9705 
 H                    -6.0987    2.09003   4.28488 
 H                    -3.16611   5.04473   5.40466 
 H                    -5.22553   3.73144   5.93177 
 S                    -0.33624   1.42405   0.76775 
 O                    -1.07052   1.0169    1.93532 
 O                     1.00563   0.91578   0.70785 
 S                    -2.31903   1.83027  -1.15403 
 O                    -1.97355   3.10593  -1.71042 
 O                    -3.03824   0.94983  -2.02016 
 N                    -1.06104   1.05612  -0.58198 
 C                     2.13129   3.33046   0.18556 
 C                     3.193     2.78962  -0.04107 
 C                    -4.79362   0.16468  -0.07724 
 C                    -5.14299  -0.86089  -0.6231 
 C                    -5.46577  -2.0696   -1.32416 
 C                    -5.3139   -3.33466  -0.71969 
 C                    -5.90101  -2.0077   -2.65611 
 C                    -5.5983   -4.49735  -1.42968 
 C                    -6.18534  -3.17452  -3.36101 
 H                    -6.00734  -1.03081  -3.12872 
 C                    -6.03718  -4.41887  -2.75128 
 H                    -5.47391  -5.46745  -0.94839 
 H                    -6.52316  -3.10868  -4.39629 
 H                    -6.25977  -5.33299  -3.30289 
 C                     4.33931   1.94955  -0.21823 
 C                     4.3969    0.75379   0.51521 
 C                     5.38445   2.2514   -1.11158 
 C                     5.49204  -0.09718   0.38847 
 H                     3.55913   0.51057   1.17097 
 C                     6.47668   1.39823  -1.23358 
 C                     6.5377    0.22875  -0.47424 
 H                     5.52615  -1.02299   0.96651 
 H                     7.27972   1.64658  -1.92789 
 H                     7.39837  -0.43453  -0.57043 
 C                     5.27908   3.48264  -1.97083 
 F                     6.35871   3.65076  -2.73859 
 F                     5.1401    4.59546  -1.24257 
 F                     4.22261   3.42095  -2.7873 
 C                    -4.80815  -3.42635   0.69626 
 F                    -4.77702  -4.68512   1.13589 
 F                    -5.5596   -2.73005   1.55121 
 F                    -3.55632  -2.94949   0.80783 
 
 ITRead=  0  0  0  0  0  0  0  0  0  0  0  0  0  0  0  0  0  0  0  0
 ITRead=  0  0  0  0  0  0  0  0  0  0  0  0  0  0  0  0  0  0  0  0
 ITRead=  0  0  0  0  0  0  0  0  0  0  0  0  0  0  0  0  0  0  0  0
 ITRead=  0  0  0  0  0  0  0  0  0  0  0  0  0  0  0  0  0  0  0  0
 ITRead=  0  0  0  0  0  0  0  0  0  0  0  0  0  0  0  0  0  0  0  0
 ITRead=  0  0  0  0  0  0  0  0  0  0  0  0  0  0  0  0  0
 MicOpt= -1 -1 -1 -1 -1 -1 -1 -1 -1 -1 -1 -1 -1 -1 -1 -1 -1 -1 -1 -1
 MicOpt= -1 -1 -1 -1 -1 -1 -1 -1 -1 -1 -1 -1 -1 -1 -1 -1 -1 -1 -1 -1
 MicOpt= -1 -1 -1 -1 -1 -1 -1 -1 -1 -1 -1 -1 -1 -1 -1 -1 -1 -1 -1 -1
 MicOpt= -1 -1 -1 -1 -1 -1 -1 -1 -1 -1 -1 -1 -1 -1 -1 -1 -1 -1 -1 -1
 MicOpt= -1 -1 -1 -1 -1 -1 -1 -1 -1 -1 -1 -1 -1 -1 -1 -1 -1 -1 -1 -1
 MicOpt= -1 -1 -1 -1 -1 -1 -1 -1 -1 -1 -1 -1 -1 -1 -1 -1 -1
 NAtoms=    117 NQM=      117 NQMF=       0 NMMI=      0 NMMIF=      0
                NMic=       0 NMicF=      0.
                    Isotopes and Nuclear Properties:
 (Nuclear quadrupole moments (NQMom) in fm**2, nuclear magnetic moments (NMagM)
  in nuclear magnetons)

  Atom         1           2           3           4           5           6           7           8           9          10
 IAtWgt=          12          12          12          12          12          14           1          12          12          12
 AtmWgt=  12.0000000  12.0000000  12.0000000  12.0000000  12.0000000  14.0030740   1.0078250  12.0000000  12.0000000  12.0000000
 NucSpn=           0           0           0           0           0           2           1           0           0           0
 AtZEff=  -0.0000000  -0.0000000  -0.0000000  -0.0000000  -0.0000000  -0.0000000  -0.0000000  -0.0000000  -0.0000000  -0.0000000
 NQMom=    0.0000000   0.0000000   0.0000000   0.0000000   0.0000000   2.0440000   0.0000000   0.0000000   0.0000000   0.0000000
 NMagM=    0.0000000   0.0000000   0.0000000   0.0000000   0.0000000   0.4037610   2.7928460   0.0000000   0.0000000   0.0000000
 AtZNuc=   6.0000000   6.0000000   6.0000000   6.0000000   6.0000000   7.0000000   1.0000000   6.0000000   6.0000000   6.0000000

  Atom        11          12          13          14          15          16          17          18          19          20
 IAtWgt=          12          12           1           1           1          12          12          12          12          12
 AtmWgt=  12.0000000  12.0000000   1.0078250   1.0078250   1.0078250  12.0000000  12.0000000  12.0000000  12.0000000  12.0000000
 NucSpn=           0           0           1           1           1           0           0           0           0           0
 AtZEff=  -0.0000000  -0.0000000  -0.0000000  -0.0000000  -0.0000000  -0.0000000  -0.0000000  -0.0000000  -0.0000000  -0.0000000
 NQMom=    0.0000000   0.0000000   0.0000000   0.0000000   0.0000000   0.0000000   0.0000000   0.0000000   0.0000000   0.0000000
 NMagM=    0.0000000   0.0000000   2.7928460   2.7928460   2.7928460   0.0000000   0.0000000   0.0000000   0.0000000   0.0000000
 AtZNuc=   6.0000000   6.0000000   1.0000000   1.0000000   1.0000000   6.0000000   6.0000000   6.0000000   6.0000000   6.0000000

  Atom        21          22          23          24          25          26          27          28          29          30
 IAtWgt=           1          12           1          12           1           1           1          19          12           1
 AtmWgt=   1.0078250  12.0000000   1.0078250  12.0000000   1.0078250   1.0078250   1.0078250  18.9984032  12.0000000   1.0078250
 NucSpn=           1           0           1           0           1           1           1           1           0           1
 AtZEff=  -0.0000000  -0.0000000  -0.0000000  -0.0000000  -0.0000000  -0.0000000  -0.0000000  -0.0000000  -0.0000000  -0.0000000
 NQMom=    0.0000000   0.0000000   0.0000000   0.0000000   0.0000000   0.0000000   0.0000000   0.0000000   0.0000000   0.0000000
 NMagM=    2.7928460   0.0000000   2.7928460   0.0000000   2.7928460   2.7928460   2.7928460   2.6288670   0.0000000   2.7928460
 AtZNuc=   1.0000000   6.0000000   1.0000000   6.0000000   1.0000000   1.0000000   1.0000000   9.0000000   6.0000000   1.0000000

  Atom        31          32          33          34          35          36          37          38          39          40
 IAtWgt=           1           1          12          12          12           1           1          12           1           1
 AtmWgt=   1.0078250   1.0078250  12.0000000  12.0000000  12.0000000   1.0078250   1.0078250  12.0000000   1.0078250   1.0078250
 NucSpn=           1           1           0           0           0           1           1           0           1           1
 AtZEff=  -0.0000000  -0.0000000  -0.0000000  -0.0000000  -0.0000000  -0.0000000  -0.0000000  -0.0000000  -0.0000000  -0.0000000
 NQMom=    0.0000000   0.0000000   0.0000000   0.0000000   0.0000000   0.0000000   0.0000000   0.0000000   0.0000000   0.0000000
 NMagM=    2.7928460   2.7928460   0.0000000   0.0000000   0.0000000   2.7928460   2.7928460   0.0000000   2.7928460   2.7928460
 AtZNuc=   1.0000000   1.0000000   6.0000000   6.0000000   6.0000000   1.0000000   1.0000000   6.0000000   1.0000000   1.0000000

  Atom        41          42          43          44          45          46          47          48          49          50
 IAtWgt=           1           1           1           1          14          16         127           1          12          12
 AtmWgt=   1.0078250   1.0078250   1.0078250   1.0078250  14.0030740  15.9949146 126.9004000   1.0078250  12.0000000  12.0000000
 NucSpn=           1           1           1           1           2           0           5           1           0           0
 AtZEff=  -0.0000000  -0.0000000  -0.0000000  -0.0000000  -0.0000000  -0.0000000  -0.0000000  -0.0000000  -0.0000000  -0.0000000
 NQMom=    0.0000000   0.0000000   0.0000000   0.0000000   2.0440000   0.0000000 -71.0000000   0.0000000   0.0000000   0.0000000
 NMagM=    2.7928460   2.7928460   2.7928460   2.7928460   0.4037610   0.0000000   2.8132800   2.7928460   0.0000000   0.0000000
 AtZNuc=   1.0000000   1.0000000   1.0000000   1.0000000   7.0000000   8.0000000  53.0000000   1.0000000   6.0000000   6.0000000

  Atom        51          52          53          54          55          56          57          58          59          60
 IAtWgt=          12          12          12          12           1           1          12          12           1           1
 AtmWgt=  12.0000000  12.0000000  12.0000000  12.0000000   1.0078250   1.0078250  12.0000000  12.0000000   1.0078250   1.0078250
 NucSpn=           0           0           0           0           1           1           0           0           1           1
 AtZEff=  -0.0000000  -0.0000000  -0.0000000  -0.0000000  -0.0000000  -0.0000000  -0.0000000  -0.0000000  -0.0000000  -0.0000000
 NQMom=    0.0000000   0.0000000   0.0000000   0.0000000   0.0000000   0.0000000   0.0000000   0.0000000   0.0000000   0.0000000
 NMagM=    0.0000000   0.0000000   0.0000000   0.0000000   2.7928460   2.7928460   0.0000000   0.0000000   2.7928460   2.7928460
 AtZNuc=   6.0000000   6.0000000   6.0000000   6.0000000   1.0000000   1.0000000   6.0000000   6.0000000   1.0000000   1.0000000

  Atom        61          62          63          64          65          66          67          68          69          70
 IAtWgt=          12          12           1          12          12          12          12          12          12          12
 AtmWgt=  12.0000000  12.0000000   1.0078250  12.0000000  12.0000000  12.0000000  12.0000000  12.0000000  12.0000000  12.0000000
 NucSpn=           0           0           1           0           0           0           0           0           0           0
 AtZEff=  -0.0000000  -0.0000000  -0.0000000  -0.0000000  -0.0000000  -0.0000000  -0.0000000  -0.0000000  -0.0000000  -0.0000000
 NQMom=    0.0000000   0.0000000   0.0000000   0.0000000   0.0000000   0.0000000   0.0000000   0.0000000   0.0000000   0.0000000
 NMagM=    0.0000000   0.0000000   2.7928460   0.0000000   0.0000000   0.0000000   0.0000000   0.0000000   0.0000000   0.0000000
 AtZNuc=   6.0000000   6.0000000   1.0000000   6.0000000   6.0000000   6.0000000   6.0000000   6.0000000   6.0000000   6.0000000

  Atom        71          72          73          74          75          76          77          78          79          80
 IAtWgt=          12          12           1           1          12           1           1           1          32          16
 AtmWgt=  12.0000000  12.0000000   1.0078250   1.0078250  12.0000000   1.0078250   1.0078250   1.0078250  31.9720718  15.9949146
 NucSpn=           0           0           1           1           0           1           1           1           0           0
 AtZEff=  -0.0000000  -0.0000000  -0.0000000  -0.0000000  -0.0000000  -0.0000000  -0.0000000  -0.0000000  -0.0000000  -0.0000000
 NQMom=    0.0000000   0.0000000   0.0000000   0.0000000   0.0000000   0.0000000   0.0000000   0.0000000   0.0000000   0.0000000
 NMagM=    0.0000000   0.0000000   2.7928460   2.7928460   0.0000000   2.7928460   2.7928460   2.7928460   0.0000000   0.0000000
 AtZNuc=   6.0000000   6.0000000   1.0000000   1.0000000   6.0000000   1.0000000   1.0000000   1.0000000  16.0000000   8.0000000

  Atom        81          82          83          84          85          86          87          88          89          90
 IAtWgt=          16          32          16          16          14          12          12          12          12          12
 AtmWgt=  15.9949146  31.9720718  15.9949146  15.9949146  14.0030740  12.0000000  12.0000000  12.0000000  12.0000000  12.0000000
 NucSpn=           0           0           0           0           2           0           0           0           0           0
 AtZEff=  -0.0000000  -0.0000000  -0.0000000  -0.0000000  -0.0000000  -0.0000000  -0.0000000  -0.0000000  -0.0000000  -0.0000000
 NQMom=    0.0000000   0.0000000   0.0000000   0.0000000   2.0440000   0.0000000   0.0000000   0.0000000   0.0000000   0.0000000
 NMagM=    0.0000000   0.0000000   0.0000000   0.0000000   0.4037610   0.0000000   0.0000000   0.0000000   0.0000000   0.0000000
 AtZNuc=   8.0000000  16.0000000   8.0000000   8.0000000   7.0000000   6.0000000   6.0000000   6.0000000   6.0000000   6.0000000

  Atom        91          92          93          94          95          96          97          98          99         100
 IAtWgt=          12          12          12          12           1          12           1           1           1          12
 AtmWgt=  12.0000000  12.0000000  12.0000000  12.0000000   1.0078250  12.0000000   1.0078250   1.0078250   1.0078250  12.0000000
 NucSpn=           0           0           0           0           1           0           1           1           1           0
 AtZEff=  -0.0000000  -0.0000000  -0.0000000  -0.0000000  -0.0000000  -0.0000000  -0.0000000  -0.0000000  -0.0000000  -0.0000000
 NQMom=    0.0000000   0.0000000   0.0000000   0.0000000   0.0000000   0.0000000   0.0000000   0.0000000   0.0000000   0.0000000
 NMagM=    0.0000000   0.0000000   0.0000000   0.0000000   2.7928460   0.0000000   2.7928460   2.7928460   2.7928460   0.0000000
 AtZNuc=   6.0000000   6.0000000   6.0000000   6.0000000   1.0000000   6.0000000   1.0000000   1.0000000   1.0000000   6.0000000

  Atom       101         102         103         104         105         106         107         108         109         110
 IAtWgt=          12          12          12           1          12          12           1           1           1          12
 AtmWgt=  12.0000000  12.0000000  12.0000000   1.0078250  12.0000000  12.0000000   1.0078250   1.0078250   1.0078250  12.0000000
 NucSpn=           0           0           0           1           0           0           1           1           1           0
 AtZEff=  -0.0000000  -0.0000000  -0.0000000  -0.0000000  -0.0000000  -0.0000000  -0.0000000  -0.0000000  -0.0000000  -0.0000000
 NQMom=    0.0000000   0.0000000   0.0000000   0.0000000   0.0000000   0.0000000   0.0000000   0.0000000   0.0000000   0.0000000
 NMagM=    0.0000000   0.0000000   0.0000000   2.7928460   0.0000000   0.0000000   2.7928460   2.7928460   2.7928460   0.0000000
 AtZNuc=   6.0000000   6.0000000   6.0000000   1.0000000   6.0000000   6.0000000   1.0000000   1.0000000   1.0000000   6.0000000

  Atom       111         112         113         114         115         116         117
 IAtWgt=          19          19          19          12          19          19          19
 AtmWgt=  18.9984032  18.9984032  18.9984032  12.0000000  18.9984032  18.9984032  18.9984032
 NucSpn=           1           1           1           0           1           1           1
 AtZEff=  -0.0000000  -0.0000000  -0.0000000  -0.0000000  -0.0000000  -0.0000000  -0.0000000
 NQMom=    0.0000000   0.0000000   0.0000000   0.0000000   0.0000000   0.0000000   0.0000000
 NMagM=    2.6288670   2.6288670   2.6288670   0.0000000   2.6288670   2.6288670   2.6288670
 AtZNuc=   9.0000000   9.0000000   9.0000000   6.0000000   9.0000000   9.0000000   9.0000000
 Leave Link  101 at Sun Feb  9 10:18:52 2025, MaxMem=  7247757312 cpu:               1.1 elap:               0.1
 (Enter /ihome/crc/install/gaussian/c01/avx2/tar/g16/l202.exe)
 Symmetry turned off by external request.
 Stoichiometry    C60H39F7IN3O5S2
 Framework group  C1[X(C60H39F7IN3O5S2)]
 Deg. of freedom   345
 Full point group                 C1      NOp   1
                          Input orientation:                          
 ---------------------------------------------------------------------
 Center     Atomic      Atomic             Coordinates (Angstroms)
 Number     Number       Type             X           Y           Z
 ---------------------------------------------------------------------
      1          6           0        2.011516   -2.037941   -0.978465
      2          6           0        0.831566   -2.337360   -1.850080
      3          6           0       -0.483672   -2.099735   -1.205735
      4          6           0       -0.536059   -1.927118    0.131715
      5          6           0        0.685361   -1.875728    0.902138
      6          7           0        1.925605   -1.863963    0.290316
      7          1           0       -1.492674   -1.709986    0.600890
      8          6           0        3.365651   -2.037411   -1.596970
      9          6           0        3.731857   -1.200693   -2.673631
     10          6           0        5.014451   -1.339643   -3.224582
     11          6           0        5.566434   -3.101163   -1.665413
     12          6           0        5.915429   -2.280524   -2.735193
     13          1           0        5.314377   -0.673326   -4.034437
     14          1           0        6.906926   -2.367708   -3.182192
     15          1           0        6.243891   -3.850307   -1.254849
     16          6           0        4.305128   -2.953909   -1.112019
     17          6           0        2.819744   -0.157517   -3.215399
     18          6           0        2.752776    0.057145   -4.601709
     19          6           0        2.039313    0.642703   -2.367239
     20          6           0        1.925154    1.046744   -5.126046
     21          1           0        3.341316   -0.570211   -5.273997
     22          6           0        1.216078    1.637999   -2.896208
     23          1           0        2.075778    0.518364   -1.281601
     24          6           0        1.156887    1.842263   -4.273800
     25          1           0        1.877013    1.194760   -6.206298
     26          1           0        0.613054    2.250304   -2.223688
     27          1           0        0.508078    2.619461   -4.681087
     28          9           0        3.958724   -3.759034   -0.103779
     29          6           0       -1.686893   -1.989034   -2.073334
     30          1           0       -1.670310   -0.999334   -2.559504
     31          1           0       -1.689837   -2.763234   -2.854794
     32          1           0       -2.607728   -2.047468   -1.480104
     33          6           0       -0.520333   -1.841371    3.047561
     34          6           0        1.891696   -1.502411    2.996776
     35          6           0       -0.284905   -2.843209    4.173211
     36          1           0       -1.386641   -2.153002    2.459182
     37          1           0       -0.703383   -0.832639    3.444070
     38          6           0        2.006176   -2.518127    4.124693
     39          1           0        2.764930   -1.536688    2.342104
     40          1           0        1.776299   -0.488463    3.410803
     41          1           0       -0.189824   -3.859156    3.744405
     42          1           0       -1.150914   -2.829115    4.847161
     43          1           0        2.183545   -3.522926    3.696011
     44          1           0        2.860001   -2.255083    4.762174
     45          7           0        0.681819   -1.771098    2.210917
     46          8           0        0.853796   -2.520867    4.925929
     47         53           0        0.983188   -4.463917   -2.322830
     48          1           0        0.910049   -1.874832   -2.840126
     49          6           0       -2.909727    7.344706    0.549289
     50          6           0       -2.864269    5.985901    0.751015
     51          6           0       -1.627032    5.283867    0.700272
     52          6           0       -0.444653    6.018375    0.400975
     53          6           0       -0.520005    7.426099    0.206248
     54          6           0       -1.725595    8.076883    0.283914
     55          1           0       -3.868190    7.864612    0.588031
     56          1           0       -3.786741    5.437511    0.942220
     57          6           0       -1.536444    3.866947    0.903399
     58          6           0        0.783507    5.331368    0.264166
     59          1           0        0.399301    7.971510   -0.015911
     60          1           0       -1.779016    9.155692    0.129497
     61          6           0        0.864592    3.960158    0.416322
     62          6           0       -0.316818    3.223863    0.763727
     63          1           0        1.683794    5.893185    0.009604
     64          6           0       -2.789653    3.096501    1.207301
     65          6           0       -3.282380    2.149555    0.326005
     66          6           0       -3.418940    3.283107    2.483518
     67          6           0       -4.377182    1.303511    0.693379
     68          6           0       -4.567909    2.506165    2.806792
     69          6           0       -2.923435    4.191884    3.461335
     70          6           0       -5.013916    1.515689    1.901097
     71          6           0       -5.214925    2.690674    4.060821
     72          6           0       -3.562811    4.343675    4.668646
     73          1           0       -2.022984    4.769499    3.253461
     74          1           0       -5.854525    0.878729    2.181637
     75          6           0       -4.727611    3.595097    4.970498
     76          1           0       -6.098699    2.090025    4.284875
     77          1           0       -3.166113    5.044727    5.404659
     78          1           0       -5.225528    3.731441    5.931769
     79         16           0       -0.336236    1.424053    0.767751
     80          8           0       -1.070525    1.016900    1.935319
     81          8           0        1.005634    0.915778    0.707852
     82         16           0       -2.319029    1.830270   -1.154034
     83          8           0       -1.973553    3.105933   -1.710418
     84          8           0       -3.038239    0.949825   -2.020156
     85          7           0       -1.061041    1.056125   -0.581978
     86          6           0        2.131288    3.330455    0.185563
     87          6           0        3.192998    2.789621   -0.041072
     88          6           0       -4.793620    0.164675   -0.077238
     89          6           0       -5.142990   -0.860892   -0.623101
     90          6           0       -5.465773   -2.069603   -1.324159
     91          6           0       -5.313902   -3.334664   -0.719688
     92          6           0       -5.901012   -2.007697   -2.656105
     93          6           0       -5.598300   -4.497353   -1.429680
     94          6           0       -6.185343   -3.174518   -3.361007
     95          1           0       -6.007343   -1.030813   -3.128720
     96          6           0       -6.037181   -4.418866   -2.751275
     97          1           0       -5.473914   -5.467451   -0.948392
     98          1           0       -6.523158   -3.108683   -4.396291
     99          1           0       -6.259770   -5.332993   -3.302889
    100          6           0        4.339309    1.949547   -0.218228
    101          6           0        4.396903    0.753792    0.515211
    102          6           0        5.384445    2.251402   -1.111577
    103          6           0        5.492035   -0.097180    0.388465
    104          1           0        3.559132    0.510566    1.170967
    105          6           0        6.476676    1.398232   -1.233580
    106          6           0        6.537697    0.228750   -0.474241
    107          1           0        5.526154   -1.022985    0.966513
    108          1           0        7.279717    1.646575   -1.927893
    109          1           0        7.398370   -0.434533   -0.570425
    110          6           0        5.279082    3.482642   -1.970828
    111          9           0        6.358711    3.650757   -2.738588
    112          9           0        5.140102    4.595455   -1.242574
    113          9           0        4.222608    3.420950   -2.787296
    114          6           0       -4.808148   -3.426351    0.696262
    115          9           0       -4.777018   -4.685124    1.135887
    116          9           0       -5.559599   -2.730049    1.551211
    117          9           0       -3.556324   -2.949489    0.807834
 ---------------------------------------------------------------------
 Rotational constants (GHZ):           0.0278219           0.0248101           0.0172028
 Leave Link  202 at Sun Feb  9 10:18:52 2025, MaxMem=  7247757312 cpu:               1.3 elap:               0.1
 (Enter /ihome/crc/install/gaussian/c01/avx2/tar/g16/l301.exe)
 Standard basis: def2TZVPP (5D, 7F)
 Ernie: Thresh=  0.10000D-02 Tol=  0.10000D-05 Strict=F.
  3005 basis functions,  4735 primitive gaussians,  3440 cartesian basis functions
   290 alpha electrons      290 beta electrons
       nuclear repulsion energy     15764.2946137291 Hartrees.
 IExCor=  402 DFT=T Ex+Corr=B3LYP ExCW=0 ScaHFX=  0.200000
 ScaDFX=  0.800000  0.720000  1.000000  0.810000 ScalE2=  1.000000  1.000000
 IRadAn=      5 IRanWt=     -1 IRanGd=            0 ICorTp=0 IEmpDi=141
 NAtoms=  117 NActive=  117 NUniq=  117 SFac= 1.00D+00 NAtFMM=   60 NAOKFM=T Big=T
 Integral buffers will be    131072 words long.
 Raffenetti 2 integral format.
 Two-electron integral symmetry is turned off.
 R6Disp:  Grimme-D3(BJ) Dispersion energy=       -0.3870965030 Hartrees.
 Nuclear repulsion after empirical dispersion term =    15763.9075172261 Hartrees.
 ------------------------------------------------------------------------------
 Polarizable Continuum Model (PCM)
 =================================
 Model                : PCM.
 Atomic radii         : SMD-Coulomb.
 Polarization charges : Total charges.
 Charge compensation  : None.
 Solution method      : On-the-fly selection.
 Cavity type          : VdW (van der Waals Surface) (Alpha=1.000).
 Cavity algorithm     : GePol (No added spheres)
                        Default sphere list used, NSphG=  117.
                        Lebedev-Laikov grids with approx.  5.0 points / Ang**2.
                        Smoothing algorithm: York/Karplus (Gamma=1.0000).
                        Polarization charges: spherical gaussians, with
                                              point-specific exponents (IZeta= 3).
                        Self-potential: point-specific (ISelfS= 7).
                        Self-field    : sphere-specific E.n sum rule (ISelfD= 2).
 Solvent              : PropylEthanoate, Eps=   5.520500 Eps(inf)=   1.916010
 ------------------------------------------------------------------------------
 GePol: Number of generator spheres                  =     117
 GePol: Total number of spheres                      =     117
 GePol: Number of exposed spheres                    =     117 (100.00%)
 GePol: Number of points                             =    8308
 GePol: Average weight of points                     =       0.11
 GePol: Minimum weight of points                     =   0.15D-11
 GePol: Maximum weight of points                     =    0.21501
 GePol: Number of points with low weight             =     482
 GePol: Fraction of low-weight points (<1% of avg)   =       5.80%
 GePol: Cavity surface area                          =    936.567 Ang**2
 GePol: Cavity volume                                =   1071.528 Ang**3
 ------------------------------------------------------------------------------
 Atomic radii for non-electrostatic terms: SMD-CDS.
 ------------------------------------------------------------------------------
 PCM non-electrostatic energy =        -0.0202362308 Hartrees.
 Nuclear repulsion after PCM non-electrostatic terms =    15763.8872809954 Hartrees.
 Leave Link  301 at Sun Feb  9 10:18:53 2025, MaxMem=  7247757312 cpu:               2.8 elap:               0.1
 (Enter /ihome/crc/install/gaussian/c01/avx2/tar/g16/l302.exe)
 NPDir=0 NMtPBC=     1 NCelOv=     1 NCel=       1 NClECP=     1 NCelD=      1
         NCelK=      1 NCelE2=     1 NClLst=     1 CellRange=     0.0.
 One-electron integrals computed using PRISM.
   1 Symmetry operations used in ECPInt.
 ECPInt:  NShTT=  608856 NPrTT= 1802125 LenC2=  394086 LenP2D=  743106.
 LDataN:  DoStor=T MaxTD1= 7 Len=  274
 Number of processors reduced to  15 by ecpmxn.
 NBasis=  3005 RedAO= T EigKep=  1.97D-06  NBF=  3005
 NBsUse=  3005 1.00D-06 EigRej= -1.00D+00 NBFU=  3005
 Precomputing XC quadrature grid using
 IXCGrd= 4 IRadAn=           5 IRanWt=          -1 IRanGd=           0 AccXCQ= 0.00D+00.
 Defaulting to unpruned grid for atomic number  53.
 Generated NRdTot=       0 NPtTot=           0 NUsed=           0 NTot=          32
 NSgBfM=  2978  2962  2968  2971  2978 MxSgAt=   117 MxSgA2=   117.
 Leave Link  302 at Sun Feb  9 10:19:06 2025, MaxMem=  7247757312 cpu:             353.9 elap:              13.8
 (Enter /ihome/crc/install/gaussian/c01/avx2/tar/g16/l303.exe)
 DipDrv:  MaxL=1.
 Leave Link  303 at Sun Feb  9 10:19:07 2025, MaxMem=  7247757312 cpu:              17.5 elap:               0.7
 (Enter /ihome/crc/install/gaussian/c01/avx2/tar/g16/l401.exe)
 ExpMin= 7.49D-02 ExpMax= 6.07D+04 ExpMxC= 2.07D+03 IAcc=3 IRadAn=         5 AccDes= 0.00D+00
 Harris functional with IExCor=  402 and IRadAn=       5 diagonalized for initial guess.
 HarFok:  IExCor=  402 AccDes= 0.00D+00 IRadAn=         5 IDoV= 1 UseB2=F ITyADJ=14
 ICtDFT=  3500011 ScaDFX=  1.000000  1.000000  1.000000  1.000000
 Defaulting to unpruned grid for atomic number  53.
 FoFCou: FMM=F IPFlag=           0 FMFlag=      100000 FMFlg1=        2001
         NFxFlg=           0 DoJE=T BraDBF=F KetDBF=T FulRan=T
         wScrn=  0.000000 ICntrl=       500 IOpCl=  0 I1Cent=   200000004 NGrid=           0
         NMat0=    1 NMatS0=      1 NMatT0=    0 NMatD0=    1 NMtDS0=    0 NMtDT0=    0
 Symmetry not used in FoFCou.
 Harris En= -4645.02529606994    
 JPrj=0 DoOrth=F DoCkMO=F.
 Leave Link  401 at Sun Feb  9 10:19:21 2025, MaxMem=  7247757312 cpu:             429.8 elap:              13.9
 (Enter /ihome/crc/install/gaussian/c01/avx2/tar/g16/l502.exe)
 Two-electron integral symmetry not used.
 Closed shell SCF:
 Using DIIS extrapolation, IDIIS=  1040.
 NGot=  7247757312 LenX=  7223956348 LenY=  7212119308
 Requested convergence on RMS density matrix=1.00D-08 within 128 cycles.
 Requested convergence on MAX density matrix=1.00D-06.
 Requested convergence on             energy=1.00D-06.
 No special actions if energy rises.
 Fock matrices will be formed incrementally for  20 cycles.

 Cycle   1  Pass 1  IDiag  1:
 FoFJK:  IHMeth= 1 ICntrl=       0 DoSepK=F KAlg= 0 I1Cent=           0 FoldK=F
 IRaf= 600000000 NMat=       1 IRICut=       1 DoRegI=T DoRafI=F ISym2E= 0 IDoP0=0 IntGTp=1.
 FoFCou: FMM=T IPFlag=           0 FMFlag=      100000 FMFlg1=        2001
         NFxFlg=           0 DoJE=F BraDBF=F KetDBF=F FulRan=T
         wScrn=  0.000000 ICntrl=         0 IOpCl=  0 I1Cent=           0 NGrid=           0
         NMat0=    1 NMatS0=      1 NMatT0=    0 NMatD0=    1 NMtDS0=    0 NMtDT0=    0
 Symmetry not used in FoFCou.
 FMM levels:  10  Number of levels for PrismC:   9
 Defaulting to unpruned grid for atomic number  53.
 Defaulting to unpruned grid for atomic number  53.
 Defaulting to unpruned grid for atomic number  53.
 Defaulting to unpruned grid for atomic number  53.
 Defaulting to unpruned grid for atomic number  53.
 Defaulting to unpruned grid for atomic number  53.
 Defaulting to unpruned grid for atomic number  53.
 Defaulting to unpruned grid for atomic number  53.
 Defaulting to unpruned grid for atomic number  53.
 Defaulting to unpruned grid for atomic number  53.
 Defaulting to unpruned grid for atomic number  53.
 Defaulting to unpruned grid for atomic number  53.
 Defaulting to unpruned grid for atomic number  53.
 Defaulting to unpruned grid for atomic number  53.
 Defaulting to unpruned grid for atomic number  53.
 Defaulting to unpruned grid for atomic number  53.
 Defaulting to unpruned grid for atomic number  53.
 Defaulting to unpruned grid for atomic number  53.
 Defaulting to unpruned grid for atomic number  53.
 Defaulting to unpruned grid for atomic number  53.
 Defaulting to unpruned grid for atomic number  53.
 Defaulting to unpruned grid for atomic number  53.
 Defaulting to unpruned grid for atomic number  53.
 Defaulting to unpruned grid for atomic number  53.
 Defaulting to unpruned grid for atomic number  53.
 Defaulting to unpruned grid for atomic number  53.
 Defaulting to unpruned grid for atomic number  53.
 Defaulting to unpruned grid for atomic number  53.
 Defaulting to unpruned grid for atomic number  53.
 Defaulting to unpruned grid for atomic number  53.
 Defaulting to unpruned grid for atomic number  53.
 Defaulting to unpruned grid for atomic number  53.
 Inv3:  Mode=1 IEnd=   207068592.
 Iteration    1 A*A^-1 deviation from unit magnitude is 4.22D-15 for   6778.
 Iteration    1 A*A^-1 deviation from orthogonality  is 2.59D-15 for   5080   1450.
 Iteration    1 A^-1*A deviation from unit magnitude is 4.44D-15 for   6231.
 Iteration    1 A^-1*A deviation from orthogonality  is 1.70D-09 for   8251   8233.
 Iteration    2 A*A^-1 deviation from unit magnitude is 2.22D-15 for   2311.
 Iteration    2 A*A^-1 deviation from orthogonality  is 3.77D-15 for   7048   1352.
 Iteration    2 A^-1*A deviation from unit magnitude is 1.89D-15 for   7318.
 Iteration    2 A^-1*A deviation from orthogonality  is 1.11D-15 for   6225   3505.
 E= -4643.10790296621    
 DIIS: error= 1.15D-02 at cycle   1 NSaved=   1.
 NSaved= 1 IEnMin= 1 EnMin= -4643.10790296621     IErMin= 1 ErrMin= 1.15D-02
 ErrMax= 1.15D-02  0.00D+00 EMaxC= 1.00D-01 BMatC= 2.40D+00 BMatP= 2.40D+00
 IDIUse=3 WtCom= 8.85D-01 WtEn= 1.15D-01
 Coeff-Com:  0.100D+01
 Coeff-En:   0.100D+01
 Coeff:      0.100D+01
 Gap=     0.341 Goal=   None    Shift=    0.000
 GapD=    0.341 DampG=1.000 DampE=0.500 DampFc=0.5000 IDamp=-1.
 Damping current iteration by 5.00D-01
 RMSDP=2.81D-03 MaxDP=1.38D+00              OVMax= 2.22D-01

 Cycle   2  Pass 1  IDiag  1:
 RMSU=  1.39D-03    CP:  1.05D+00
 E= -4643.68358023268     Delta-E=       -0.575677266466 Rises=F Damp=T
 DIIS: error= 4.85D-03 at cycle   2 NSaved=   2.
 NSaved= 2 IEnMin= 2 EnMin= -4643.68358023268     IErMin= 2 ErrMin= 4.85D-03
 ErrMax= 4.85D-03  0.00D+00 EMaxC= 1.00D-01 BMatC= 3.30D-01 BMatP= 2.40D+00
 IDIUse=3 WtCom= 9.51D-01 WtEn= 4.85D-02
 Coeff-Com:  0.178D+00 0.822D+00
 Coeff-En:   0.309D+00 0.691D+00
 Coeff:      0.185D+00 0.815D+00
 Gap=     0.077 Goal=   None    Shift=    0.000
 RMSDP=1.09D-03 MaxDP=4.73D-01 DE=-5.76D-01 OVMax= 2.37D-01

 Cycle   3  Pass 1  IDiag  1:
 RMSU=  8.44D-04    CP:  1.01D+00  5.12D-01
 E= -4644.70124497328     Delta-E=       -1.017664740604 Rises=F Damp=F
 DIIS: error= 5.15D-03 at cycle   3 NSaved=   3.
 NSaved= 3 IEnMin= 3 EnMin= -4644.70124497328     IErMin= 2 ErrMin= 4.85D-03
 ErrMax= 5.15D-03  0.00D+00 EMaxC= 1.00D-01 BMatC= 3.60D-01 BMatP= 3.30D-01
 IDIUse=3 WtCom= 9.48D-01 WtEn= 5.15D-02
 Coeff-Com:  0.188D-01 0.510D+00 0.471D+00
 Coeff-En:   0.000D+00 0.000D+00 0.100D+01
 Coeff:      0.178D-01 0.484D+00 0.498D+00
 Gap=     0.130 Goal=   None    Shift=    0.000
 RMSDP=7.09D-04 MaxDP=1.53D-01 DE=-1.02D+00 OVMax= 1.07D-01

 Cycle   4  Pass 1  IDiag  1:
 RMSU=  4.34D-04    CP:  9.97D-01  5.11D-01  3.38D-01
 E= -4644.96942886503     Delta-E=       -0.268183891745 Rises=F Damp=F
 DIIS: error= 1.97D-03 at cycle   4 NSaved=   4.
 NSaved= 4 IEnMin= 4 EnMin= -4644.96942886503     IErMin= 4 ErrMin= 1.97D-03
 ErrMax= 1.97D-03  0.00D+00 EMaxC= 1.00D-01 BMatC= 5.19D-02 BMatP= 3.30D-01
 IDIUse=3 WtCom= 9.80D-01 WtEn= 1.97D-02
 Coeff-Com: -0.153D-01 0.175D+00 0.308D+00 0.533D+00
 Coeff-En:   0.000D+00 0.000D+00 0.145D+00 0.855D+00
 Coeff:     -0.150D-01 0.171D+00 0.305D+00 0.539D+00
 Gap=     0.100 Goal=   None    Shift=    0.000
 RMSDP=2.34D-04 MaxDP=8.64D-02 DE=-2.68D-01 OVMax= 5.67D-02

 Cycle   5  Pass 1  IDiag  1:
 RMSU=  1.20D-04    CP:  9.99D-01  5.22D-01  5.18D-01  7.00D-01
 E= -4645.01258553914     Delta-E=       -0.043156674112 Rises=F Damp=F
 DIIS: error= 1.12D-03 at cycle   5 NSaved=   5.
 NSaved= 5 IEnMin= 5 EnMin= -4645.01258553914     IErMin= 5 ErrMin= 1.12D-03
 ErrMax= 1.12D-03  0.00D+00 EMaxC= 1.00D-01 BMatC= 6.12D-03 BMatP= 5.19D-02
 IDIUse=3 WtCom= 9.89D-01 WtEn= 1.12D-02
 Coeff-Com: -0.121D-01 0.421D-01 0.118D+00 0.324D+00 0.528D+00
 Coeff-En:   0.000D+00 0.000D+00 0.000D+00 0.914D-01 0.909D+00
 Coeff:     -0.120D-01 0.416D-01 0.116D+00 0.321D+00 0.533D+00
 Gap=     0.097 Goal=   None    Shift=    0.000
 RMSDP=5.92D-05 MaxDP=1.61D-02 DE=-4.32D-02 OVMax= 1.63D-02

 Cycle   6  Pass 1  IDiag  1:
 RMSU=  3.87D-05    CP:  1.00D+00  5.23D-01  5.03D-01  7.41D-01  6.76D-01
 E= -4645.01772654273     Delta-E=       -0.005141003587 Rises=F Damp=F
 DIIS: error= 6.05D-04 at cycle   6 NSaved=   6.
 NSaved= 6 IEnMin= 6 EnMin= -4645.01772654273     IErMin= 6 ErrMin= 6.05D-04
 ErrMax= 6.05D-04  0.00D+00 EMaxC= 1.00D-01 BMatC= 9.16D-04 BMatP= 6.12D-03
 IDIUse=3 WtCom= 9.94D-01 WtEn= 6.05D-03
 Coeff-Com: -0.576D-02 0.905D-02 0.397D-01 0.141D+00 0.337D+00 0.479D+00
 Coeff-En:   0.000D+00 0.000D+00 0.000D+00 0.000D+00 0.117D+00 0.883D+00
 Coeff:     -0.573D-02 0.899D-02 0.395D-01 0.140D+00 0.336D+00 0.481D+00
 Gap=     0.097 Goal=   None    Shift=    0.000
 RMSDP=1.72D-05 MaxDP=3.32D-03 DE=-5.14D-03 OVMax= 5.70D-03

 Cycle   7  Pass 1  IDiag  1:
 RMSU=  1.39D-05    CP:  1.00D+00  5.26D-01  5.07D-01  7.36D-01  7.08D-01
                    CP:  8.02D-01
 E= -4645.01851205542     Delta-E=       -0.000785512695 Rises=F Damp=F
 DIIS: error= 2.28D-04 at cycle   7 NSaved=   7.
 NSaved= 7 IEnMin= 7 EnMin= -4645.01851205542     IErMin= 7 ErrMin= 2.28D-04
 ErrMax= 2.28D-04  0.00D+00 EMaxC= 1.00D-01 BMatC= 1.20D-04 BMatP= 9.16D-04
 IDIUse=3 WtCom= 9.98D-01 WtEn= 2.28D-03
 Coeff-Com: -0.203D-02 0.738D-03 0.103D-01 0.478D-01 0.147D+00 0.313D+00
 Coeff-Com:  0.483D+00
 Coeff-En:   0.000D+00 0.000D+00 0.000D+00 0.000D+00 0.000D+00 0.106D+00
 Coeff-En:   0.894D+00
 Coeff:     -0.203D-02 0.737D-03 0.103D-01 0.477D-01 0.147D+00 0.312D+00
 Coeff:      0.484D+00
 Gap=     0.097 Goal=   None    Shift=    0.000
 RMSDP=7.03D-06 MaxDP=1.71D-03 DE=-7.86D-04 OVMax= 2.18D-03

 Cycle   8  Pass 1  IDiag  1:
 RMSU=  5.08D-06    CP:  1.00D+00  5.27D-01  5.06D-01  7.36D-01  7.17D-01
                    CP:  7.71D-01  6.99D-01
 E= -4645.01862077373     Delta-E=       -0.000108718303 Rises=F Damp=F
 DIIS: error= 5.32D-05 at cycle   8 NSaved=   8.
 NSaved= 8 IEnMin= 8 EnMin= -4645.01862077373     IErMin= 8 ErrMin= 5.32D-05
 ErrMax= 5.32D-05  0.00D+00 EMaxC= 1.00D-01 BMatC= 8.57D-06 BMatP= 1.20D-04
 IDIUse=1 WtCom= 1.00D+00 WtEn= 0.00D+00
 Coeff-Com: -0.472D-03-0.583D-03 0.128D-02 0.111D-01 0.468D-01 0.126D+00
 Coeff-Com:  0.271D+00 0.544D+00
 Coeff:     -0.472D-03-0.583D-03 0.128D-02 0.111D-01 0.468D-01 0.126D+00
 Coeff:      0.271D+00 0.544D+00
 Gap=     0.097 Goal=   None    Shift=    0.000
 RMSDP=2.40D-06 MaxDP=6.22D-04 DE=-1.09D-04 OVMax= 7.63D-04

 Cycle   9  Pass 1  IDiag  1:
 RMSU=  1.53D-06    CP:  1.00D+00  5.27D-01  5.05D-01  7.38D-01  7.14D-01
                    CP:  7.77D-01  7.19D-01  8.13D-01
 E= -4645.01862756015     Delta-E=       -0.000006786424 Rises=F Damp=F
 DIIS: error= 1.57D-05 at cycle   9 NSaved=   9.
 NSaved= 9 IEnMin= 9 EnMin= -4645.01862756015     IErMin= 9 ErrMin= 1.57D-05
 ErrMax= 1.57D-05  0.00D+00 EMaxC= 1.00D-01 BMatC= 1.42D-06 BMatP= 8.57D-06
 IDIUse=1 WtCom= 1.00D+00 WtEn= 0.00D+00
 Coeff-Com: -0.397D-04-0.384D-03-0.440D-03 0.807D-03 0.105D-01 0.382D-01
 Coeff-Com:  0.102D+00 0.331D+00 0.518D+00
 Coeff:     -0.397D-04-0.384D-03-0.440D-03 0.807D-03 0.105D-01 0.382D-01
 Coeff:      0.102D+00 0.331D+00 0.518D+00
 Gap=     0.097 Goal=   None    Shift=    0.000
 RMSDP=8.84D-07 MaxDP=2.58D-04 DE=-6.79D-06 OVMax= 3.81D-04

 Cycle  10  Pass 1  IDiag  1:
 RMSU=  6.54D-07    CP:  1.00D+00  5.26D-01  5.05D-01  7.38D-01  7.15D-01
                    CP:  7.81D-01  7.28D-01  7.90D-01  7.47D-01
 E= -4645.01862879997     Delta-E=       -0.000001239818 Rises=F Damp=F
 DIIS: error= 4.72D-06 at cycle  10 NSaved=  10.
 NSaved=10 IEnMin=10 EnMin= -4645.01862879997     IErMin=10 ErrMin= 4.72D-06
 ErrMax= 4.72D-06  0.00D+00 EMaxC= 1.00D-01 BMatC= 2.07D-07 BMatP= 1.42D-06
 IDIUse=1 WtCom= 1.00D+00 WtEn= 0.00D+00
 Coeff-Com:  0.230D-04-0.170D-03-0.433D-03-0.826D-03 0.140D-02 0.103D-01
 Coeff-Com:  0.339D-01 0.147D+00 0.329D+00 0.479D+00
 Coeff:      0.230D-04-0.170D-03-0.433D-03-0.826D-03 0.140D-02 0.103D-01
 Coeff:      0.339D-01 0.147D+00 0.329D+00 0.479D+00
 Gap=     0.097 Goal=   None    Shift=    0.000
 RMSDP=4.24D-07 MaxDP=1.52D-04 DE=-1.24D-06 OVMax= 1.36D-04

 Cycle  11  Pass 1  IDiag  1:
 RMSU=  2.28D-07    CP:  1.00D+00  5.27D-01  5.05D-01  7.38D-01  7.16D-01
                    CP:  7.81D-01  7.26D-01  8.23D-01  8.09D-01  6.70D-01
 E= -4645.01862898779     Delta-E=       -0.000000187820 Rises=F Damp=F
 DIIS: error= 1.47D-06 at cycle  11 NSaved=  11.
 NSaved=11 IEnMin=11 EnMin= -4645.01862898779     IErMin=11 ErrMin= 1.47D-06
 ErrMax= 1.47D-06  0.00D+00 EMaxC= 1.00D-01 BMatC= 2.10D-08 BMatP= 2.07D-07
 IDIUse=1 WtCom= 1.00D+00 WtEn= 0.00D+00
 Coeff-Com:  0.146D-04-0.476D-04-0.203D-03-0.591D-03-0.461D-03 0.141D-02
 Coeff-Com:  0.692D-02 0.431D-01 0.127D+00 0.287D+00 0.536D+00
 Coeff:      0.146D-04-0.476D-04-0.203D-03-0.591D-03-0.461D-03 0.141D-02
 Coeff:      0.692D-02 0.431D-01 0.127D+00 0.287D+00 0.536D+00
 Gap=     0.097 Goal=   None    Shift=    0.000
 RMSDP=1.45D-07 MaxDP=3.59D-05 DE=-1.88D-07 OVMax= 4.08D-05

 Cycle  12  Pass 1  IDiag  1:
 RMSU=  9.65D-08    CP:  1.00D+00  5.27D-01  5.05D-01  7.38D-01  7.16D-01
                    CP:  7.81D-01  7.29D-01  8.27D-01  8.04D-01  7.18D-01
                    CP:  6.94D-01
 E= -4645.01862900770     Delta-E=       -0.000000019912 Rises=F Damp=F
 DIIS: error= 5.64D-07 at cycle  12 NSaved=  12.
 NSaved=12 IEnMin=12 EnMin= -4645.01862900770     IErMin=12 ErrMin= 5.64D-07
 ErrMax= 5.64D-07  0.00D+00 EMaxC= 1.00D-01 BMatC= 2.52D-09 BMatP= 2.10D-08
 IDIUse=1 WtCom= 1.00D+00 WtEn= 0.00D+00
 Coeff-Com:  0.462D-05 0.279D-06-0.657D-04-0.251D-03-0.535D-03-0.702D-03
 Coeff-Com: -0.851D-03 0.404D-02 0.277D-01 0.941D-01 0.303D+00 0.574D+00
 Coeff:      0.462D-05 0.279D-06-0.657D-04-0.251D-03-0.535D-03-0.702D-03
 Coeff:     -0.851D-03 0.404D-02 0.277D-01 0.941D-01 0.303D+00 0.574D+00
 Gap=     0.097 Goal=   None    Shift=    0.000
 RMSDP=6.21D-08 MaxDP=1.94D-05 DE=-1.99D-08 OVMax= 1.39D-05

 Cycle  13  Pass 1  IDiag  1:
 RMSU=  2.92D-08    CP:  1.00D+00  5.27D-01  5.05D-01  7.38D-01  7.16D-01
                    CP:  7.81D-01  7.28D-01  8.27D-01  8.12D-01  7.28D-01
                    CP:  7.52D-01  7.31D-01
 E= -4645.01862901068     Delta-E=       -0.000000002980 Rises=F Damp=F
 DIIS: error= 2.11D-07 at cycle  13 NSaved=  13.
 NSaved=13 IEnMin=13 EnMin= -4645.01862901068     IErMin=13 ErrMin= 2.11D-07
 ErrMax= 2.11D-07  0.00D+00 EMaxC= 1.00D-01 BMatC= 3.21D-10 BMatP= 2.52D-09
 IDIUse=1 WtCom= 1.00D+00 WtEn= 0.00D+00
 Coeff-Com:  0.153D-06 0.617D-05-0.107D-04-0.592D-04-0.238D-03-0.589D-03
 Coeff-Com: -0.144D-02-0.378D-02-0.154D-02 0.121D-01 0.982D-01 0.321D+00
 Coeff-Com:  0.576D+00
 Coeff:      0.153D-06 0.617D-05-0.107D-04-0.592D-04-0.238D-03-0.589D-03
 Coeff:     -0.144D-02-0.378D-02-0.154D-02 0.121D-01 0.982D-01 0.321D+00
 Coeff:      0.576D+00
 Gap=     0.097 Goal=   None    Shift=    0.000
 RMSDP=1.91D-08 MaxDP=7.12D-06 DE=-2.98D-09 OVMax= 3.90D-06

 Cycle  14  Pass 1  IDiag  1:
 RMSU=  1.09D-08    CP:  1.00D+00  5.27D-01  5.05D-01  7.38D-01  7.16D-01
                    CP:  7.82D-01  7.29D-01  8.27D-01  8.14D-01  7.32D-01
                    CP:  7.70D-01  7.91D-01  7.97D-01
 E= -4645.01862901045     Delta-E=        0.000000000226 Rises=F Damp=F
 DIIS: error= 6.88D-08 at cycle  14 NSaved=  14.
 NSaved=14 IEnMin=13 EnMin= -4645.01862901068     IErMin=14 ErrMin= 6.88D-08
 ErrMax= 6.88D-08  0.00D+00 EMaxC= 1.00D-01 BMatC= 5.34D-11 BMatP= 3.21D-10
 IDIUse=1 WtCom= 1.00D+00 WtEn= 0.00D+00
 Coeff-Com: -0.528D-06 0.356D-05 0.259D-05-0.302D-06-0.690D-04-0.250D-03
 Coeff-Com: -0.719D-03-0.281D-02-0.480D-02-0.713D-02 0.136D-01 0.107D+00
 Coeff-Com:  0.347D+00 0.548D+00
 Coeff:     -0.528D-06 0.356D-05 0.259D-05-0.302D-06-0.690D-04-0.250D-03
 Coeff:     -0.719D-03-0.281D-02-0.480D-02-0.713D-02 0.136D-01 0.107D+00
 Coeff:      0.347D+00 0.548D+00
 Gap=     0.097 Goal=   None    Shift=    0.000
 RMSDP=6.49D-09 MaxDP=2.46D-06 DE= 2.26D-10 OVMax= 1.48D-06

 Cycle  15  Pass 1  IDiag  1:
 RMSU=  4.38D-09    CP:  1.00D+00  5.27D-01  5.05D-01  7.38D-01  7.16D-01
                    CP:  7.82D-01  7.29D-01  8.27D-01  8.14D-01  7.32D-01
                    CP:  7.76D-01  8.01D-01  8.60D-01  7.71D-01
 E= -4645.01862901096     Delta-E=       -0.000000000506 Rises=F Damp=F
 DIIS: error= 3.90D-08 at cycle  15 NSaved=  15.
 NSaved=15 IEnMin=15 EnMin= -4645.01862901096     IErMin=15 ErrMin= 3.90D-08
 ErrMax= 3.90D-08  0.00D+00 EMaxC= 1.00D-01 BMatC= 8.25D-12 BMatP= 5.34D-11
 IDIUse=1 WtCom= 1.00D+00 WtEn= 0.00D+00
 Coeff-Com: -0.281D-06 0.126D-05 0.284D-05 0.710D-05-0.115D-04-0.714D-04
 Coeff-Com: -0.235D-03-0.116D-02-0.258D-02-0.584D-02-0.446D-02 0.225D-01
 Coeff-Com:  0.136D+00 0.336D+00 0.520D+00
 Coeff:     -0.281D-06 0.126D-05 0.284D-05 0.710D-05-0.115D-04-0.714D-04
 Coeff:     -0.235D-03-0.116D-02-0.258D-02-0.584D-02-0.446D-02 0.225D-01
 Coeff:      0.136D+00 0.336D+00 0.520D+00
 Gap=     0.097 Goal=   None    Shift=    0.000
 RMSDP=2.27D-09 MaxDP=6.74D-07 DE=-5.06D-10 OVMax= 7.17D-07

 Error on total polarization charges =  0.08267
 SCF Done:  E(RB3LYP) =  -4645.01862901     A.U. after   15 cycles
            NFock= 15  Conv=0.23D-08     -V/T= 2.0457
 KE= 4.441826631627D+03 PE=-4.235596770838D+04 EE= 1.750523516674D+04
 SMD-CDS (non-electrostatic) energy       (kcal/mol) =     -12.70
 (included in total energy above)
 Leave Link  502 at Sun Feb  9 11:06:52 2025, MaxMem=  7247757312 cpu:           90135.5 elap:            2851.2
 (Enter /ihome/crc/install/gaussian/c01/avx2/tar/g16/l601.exe)
 Copying SCF densities to generalized density rwf, IOpCl= 0 IROHF=0.
 Hyperfine terms turned off by default for NAtoms > 100.

 **********************************************************************

            Population analysis using the SCF Density.

 **********************************************************************

 Alpha  occ. eigenvalues --  -89.03209 -89.02774 -24.72239 -24.71850 -24.71827
 Alpha  occ. eigenvalues --  -24.71697 -24.71288 -24.71139 -24.70731 -19.14164
 Alpha  occ. eigenvalues --  -19.09573 -19.09362 -19.09195 -19.08961 -14.40014
 Alpha  occ. eigenvalues --  -14.33980 -14.28262 -10.42907 -10.42297 -10.29452
 Alpha  occ. eigenvalues --  -10.27386 -10.27217 -10.24460 -10.22752 -10.22741
 Alpha  occ. eigenvalues --  -10.22317 -10.22048 -10.21755 -10.21616 -10.21506
 Alpha  occ. eigenvalues --  -10.21454 -10.21389 -10.20972 -10.20839 -10.20723
 Alpha  occ. eigenvalues --  -10.20668 -10.20617 -10.20588 -10.20471 -10.20454
 Alpha  occ. eigenvalues --  -10.19555 -10.19517 -10.19422 -10.19321 -10.19283
 Alpha  occ. eigenvalues --  -10.19202 -10.19195 -10.19140 -10.19086 -10.18974
 Alpha  occ. eigenvalues --  -10.18878 -10.18870 -10.18860 -10.18762 -10.18671
 Alpha  occ. eigenvalues --  -10.18638 -10.18611 -10.18566 -10.18383 -10.18290
 Alpha  occ. eigenvalues --  -10.18089 -10.18015 -10.17973 -10.17958 -10.17905
 Alpha  occ. eigenvalues --  -10.17896 -10.17859 -10.17848 -10.17797 -10.17635
 Alpha  occ. eigenvalues --  -10.17530 -10.17334 -10.17331 -10.17046 -10.16931
 Alpha  occ. eigenvalues --  -10.16633 -10.16545  -8.07745  -8.07316  -6.85094
 Alpha  occ. eigenvalues --   -6.04053  -6.03986  -6.03956  -6.03640  -6.03542
 Alpha  occ. eigenvalues --   -6.03524  -4.87644  -4.86310  -4.86292  -1.92410
 Alpha  occ. eigenvalues --   -1.92001  -1.91983  -1.90847  -1.90846  -1.32903
 Alpha  occ. eigenvalues --   -1.32327  -1.24731  -1.23901  -1.23495  -1.23322
 Alpha  occ. eigenvalues --   -1.22931  -1.11369  -1.09761  -1.06375  -1.02240
 Alpha  occ. eigenvalues --   -0.98952  -0.98720  -0.96269  -0.90357  -0.88931
 Alpha  occ. eigenvalues --   -0.88556  -0.88514  -0.88217  -0.88050  -0.85283
 Alpha  occ. eigenvalues --   -0.84902  -0.84144  -0.83910  -0.81598  -0.81559
 Alpha  occ. eigenvalues --   -0.79739  -0.79365  -0.79341  -0.78729  -0.78564
 Alpha  occ. eigenvalues --   -0.78428  -0.77009  -0.76539  -0.76505  -0.76377
 Alpha  occ. eigenvalues --   -0.74798  -0.74712  -0.74298  -0.74187  -0.72995
 Alpha  occ. eigenvalues --   -0.72566  -0.71920  -0.71616  -0.70858  -0.70387
 Alpha  occ. eigenvalues --   -0.69076  -0.67789  -0.67597  -0.65812  -0.65742
 Alpha  occ. eigenvalues --   -0.65163  -0.64826  -0.64085  -0.63830  -0.63643
 Alpha  occ. eigenvalues --   -0.63417  -0.63076  -0.62664  -0.61986  -0.61656
 Alpha  occ. eigenvalues --   -0.61096  -0.60616  -0.60075  -0.59949  -0.59716
 Alpha  occ. eigenvalues --   -0.59551  -0.58783  -0.58488  -0.58270  -0.57949
 Alpha  occ. eigenvalues --   -0.57563  -0.56756  -0.55349  -0.55268  -0.55039
 Alpha  occ. eigenvalues --   -0.54563  -0.53595  -0.53135  -0.52599  -0.52019
 Alpha  occ. eigenvalues --   -0.51559  -0.51421  -0.51239  -0.51215  -0.50490
 Alpha  occ. eigenvalues --   -0.50244  -0.49487  -0.49388  -0.48960  -0.48847
 Alpha  occ. eigenvalues --   -0.48644  -0.48437  -0.48169  -0.48083  -0.47838
 Alpha  occ. eigenvalues --   -0.47767  -0.47701  -0.47516  -0.47327  -0.47050
 Alpha  occ. eigenvalues --   -0.46879  -0.46840  -0.46452  -0.46388  -0.45674
 Alpha  occ. eigenvalues --   -0.45564  -0.45405  -0.45058  -0.45010  -0.44950
 Alpha  occ. eigenvalues --   -0.44854  -0.44727  -0.44523  -0.44229  -0.44102
 Alpha  occ. eigenvalues --   -0.44037  -0.43920  -0.43252  -0.43165  -0.42928
 Alpha  occ. eigenvalues --   -0.42866  -0.42680  -0.42530  -0.42456  -0.42235
 Alpha  occ. eigenvalues --   -0.42134  -0.41922  -0.41781  -0.41599  -0.41272
 Alpha  occ. eigenvalues --   -0.41006  -0.40903  -0.40691  -0.40600  -0.40451
 Alpha  occ. eigenvalues --   -0.40153  -0.39920  -0.39470  -0.39391  -0.38970
 Alpha  occ. eigenvalues --   -0.38552  -0.38383  -0.38203  -0.37814  -0.37656
 Alpha  occ. eigenvalues --   -0.37248  -0.37041  -0.36871  -0.36722  -0.36630
 Alpha  occ. eigenvalues --   -0.36505  -0.36355  -0.36206  -0.36012  -0.35974
 Alpha  occ. eigenvalues --   -0.35720  -0.35107  -0.34928  -0.34488  -0.34343
 Alpha  occ. eigenvalues --   -0.34016  -0.33735  -0.33505  -0.33001  -0.32580
 Alpha  occ. eigenvalues --   -0.32177  -0.31906  -0.31710  -0.31583  -0.30977
 Alpha  occ. eigenvalues --   -0.30117  -0.29906  -0.29403  -0.28882  -0.28800
 Alpha  occ. eigenvalues --   -0.28658  -0.28395  -0.28113  -0.27700  -0.27649
 Alpha  occ. eigenvalues --   -0.27451  -0.27195  -0.27009  -0.26656  -0.26064
 Alpha  occ. eigenvalues --   -0.25731  -0.25609  -0.25232  -0.24752  -0.24577
 Alpha  occ. eigenvalues --   -0.23955  -0.23723  -0.23173  -0.22135  -0.21548
 Alpha virt. eigenvalues --   -0.11821  -0.06978  -0.06734  -0.05759  -0.05413
 Alpha virt. eigenvalues --   -0.05060  -0.03892  -0.03583  -0.03259  -0.03122
 Alpha virt. eigenvalues --   -0.02867  -0.02206  -0.01404  -0.00806   0.00443
 Alpha virt. eigenvalues --    0.01057   0.01070   0.03550   0.03972   0.04508
 Alpha virt. eigenvalues --    0.04522   0.04840   0.05103   0.05385   0.05648
 Alpha virt. eigenvalues --    0.05854   0.05977   0.06283   0.06537   0.06595
 Alpha virt. eigenvalues --    0.06782   0.07186   0.07239   0.07409   0.07702
 Alpha virt. eigenvalues --    0.07853   0.08052   0.08230   0.08513   0.08546
 Alpha virt. eigenvalues --    0.08765   0.08918   0.09250   0.09499   0.09555
 Alpha virt. eigenvalues --    0.09714   0.09844   0.10004   0.10203   0.10361
 Alpha virt. eigenvalues --    0.10473   0.10615   0.10734   0.10926   0.10965
 Alpha virt. eigenvalues --    0.11104   0.11215   0.11311   0.11556   0.11668
 Alpha virt. eigenvalues --    0.11836   0.11948   0.12164   0.12303   0.12534
 Alpha virt. eigenvalues --    0.12709   0.12749   0.13058   0.13080   0.13232
 Alpha virt. eigenvalues --    0.13577   0.13876   0.14077   0.14147   0.14244
 Alpha virt. eigenvalues --    0.14340   0.14512   0.14613   0.14733   0.14876
 Alpha virt. eigenvalues --    0.14934   0.15171   0.15332   0.15510   0.15704
 Alpha virt. eigenvalues --    0.15907   0.16103   0.16279   0.16407   0.16523
 Alpha virt. eigenvalues --    0.16731   0.17067   0.17338   0.17665   0.17717
 Alpha virt. eigenvalues --    0.18060   0.18116   0.18276   0.18460   0.18613
 Alpha virt. eigenvalues --    0.18857   0.18958   0.19141   0.19340   0.19450
 Alpha virt. eigenvalues --    0.19578   0.19738   0.19914   0.20055   0.20355
 Alpha virt. eigenvalues --    0.20452   0.20619   0.20691   0.20804   0.20871
 Alpha virt. eigenvalues --    0.21018   0.21263   0.21416   0.21436   0.21590
 Alpha virt. eigenvalues --    0.21788   0.21812   0.22148   0.22196   0.22278
 Alpha virt. eigenvalues --    0.22347   0.22540   0.22557   0.22692   0.22945
 Alpha virt. eigenvalues --    0.23215   0.23254   0.23295   0.23355   0.23638
 Alpha virt. eigenvalues --    0.23745   0.23791   0.24068   0.24239   0.24468
 Alpha virt. eigenvalues --    0.24597   0.24706   0.24824   0.25000   0.25091
 Alpha virt. eigenvalues --    0.25248   0.25353   0.25619   0.25671   0.25695
 Alpha virt. eigenvalues --    0.26083   0.26205   0.26292   0.26445   0.26788
 Alpha virt. eigenvalues --    0.27015   0.27118   0.27262   0.27373   0.27503
 Alpha virt. eigenvalues --    0.27761   0.27816   0.27862   0.27969   0.28159
 Alpha virt. eigenvalues --    0.28446   0.28467   0.28819   0.28929   0.29053
 Alpha virt. eigenvalues --    0.29214   0.29361   0.29497   0.29614   0.29689
 Alpha virt. eigenvalues --    0.29764   0.29864   0.29991   0.30142   0.30249
 Alpha virt. eigenvalues --    0.30392   0.30545   0.30624   0.30785   0.31153
 Alpha virt. eigenvalues --    0.31264   0.31532   0.31615   0.31836   0.31904
 Alpha virt. eigenvalues --    0.32119   0.32300   0.32443   0.32620   0.32762
 Alpha virt. eigenvalues --    0.32900   0.33009   0.33152   0.33299   0.33432
 Alpha virt. eigenvalues --    0.33646   0.33669   0.33867   0.34095   0.34181
 Alpha virt. eigenvalues --    0.34339   0.34524   0.34701   0.34817   0.35023
 Alpha virt. eigenvalues --    0.35125   0.35221   0.35463   0.35670   0.35851
 Alpha virt. eigenvalues --    0.36078   0.36272   0.36322   0.36654   0.36793
 Alpha virt. eigenvalues --    0.36935   0.37090   0.37234   0.37288   0.37414
 Alpha virt. eigenvalues --    0.37575   0.37705   0.37877   0.37919   0.38042
 Alpha virt. eigenvalues --    0.38218   0.38353   0.38393   0.38625   0.38769
 Alpha virt. eigenvalues --    0.38926   0.39143   0.39253   0.39605   0.39752
 Alpha virt. eigenvalues --    0.39847   0.40050   0.40170   0.40423   0.40502
 Alpha virt. eigenvalues --    0.40563   0.40830   0.40950   0.41109   0.41199
 Alpha virt. eigenvalues --    0.41344   0.41434   0.41569   0.41738   0.41912
 Alpha virt. eigenvalues --    0.41969   0.42122   0.42212   0.42316   0.42597
 Alpha virt. eigenvalues --    0.42719   0.42779   0.43009   0.43033   0.43159
 Alpha virt. eigenvalues --    0.43316   0.43426   0.43512   0.43682   0.43733
 Alpha virt. eigenvalues --    0.43847   0.44013   0.44154   0.44362   0.44407
 Alpha virt. eigenvalues --    0.44534   0.44683   0.44862   0.45023   0.45146
 Alpha virt. eigenvalues --    0.45340   0.45453   0.45525   0.45619   0.45947
 Alpha virt. eigenvalues --    0.46175   0.46192   0.46539   0.46606   0.46683
 Alpha virt. eigenvalues --    0.46729   0.47142   0.47274   0.47507   0.47614
 Alpha virt. eigenvalues --    0.47770   0.47814   0.47875   0.48048   0.48163
 Alpha virt. eigenvalues --    0.48257   0.48374   0.48547   0.48624   0.48842
 Alpha virt. eigenvalues --    0.48974   0.49043   0.49400   0.49545   0.49638
 Alpha virt. eigenvalues --    0.49772   0.49963   0.50175   0.50350   0.50405
 Alpha virt. eigenvalues --    0.50621   0.50692   0.50971   0.51090   0.51140
 Alpha virt. eigenvalues --    0.51355   0.51413   0.51571   0.51928   0.52047
 Alpha virt. eigenvalues --    0.52218   0.52301   0.52523   0.52688   0.52813
 Alpha virt. eigenvalues --    0.53135   0.53320   0.53415   0.53623   0.53811
 Alpha virt. eigenvalues --    0.53848   0.54131   0.54168   0.54582   0.54783
 Alpha virt. eigenvalues --    0.55006   0.55110   0.55151   0.55388   0.55617
 Alpha virt. eigenvalues --    0.55940   0.55961   0.56027   0.56724   0.56729
 Alpha virt. eigenvalues --    0.56896   0.57081   0.57290   0.57605   0.57784
 Alpha virt. eigenvalues --    0.57921   0.58097   0.58208   0.58514   0.58667
 Alpha virt. eigenvalues --    0.58915   0.59113   0.59410   0.59465   0.59714
 Alpha virt. eigenvalues --    0.60124   0.60126   0.60302   0.60372   0.60574
 Alpha virt. eigenvalues --    0.60709   0.60832   0.60966   0.61276   0.61587
 Alpha virt. eigenvalues --    0.61687   0.61891   0.61968   0.62410   0.62481
 Alpha virt. eigenvalues --    0.62950   0.63066   0.63259   0.63496   0.63574
 Alpha virt. eigenvalues --    0.63697   0.63951   0.64031   0.64190   0.64315
 Alpha virt. eigenvalues --    0.64489   0.64626   0.64848   0.65024   0.65105
 Alpha virt. eigenvalues --    0.65131   0.65510   0.65791   0.65968   0.66091
 Alpha virt. eigenvalues --    0.66273   0.66431   0.66527   0.66659   0.66751
 Alpha virt. eigenvalues --    0.66940   0.67088   0.67219   0.67360   0.67643
 Alpha virt. eigenvalues --    0.67855   0.67973   0.68102   0.68145   0.68354
 Alpha virt. eigenvalues --    0.68448   0.68585   0.68637   0.68803   0.68985
 Alpha virt. eigenvalues --    0.69187   0.69390   0.69501   0.69629   0.69806
 Alpha virt. eigenvalues --    0.69858   0.69973   0.70136   0.70288   0.70396
 Alpha virt. eigenvalues --    0.70609   0.70692   0.70792   0.71032   0.71248
 Alpha virt. eigenvalues --    0.71320   0.71668   0.71768   0.71989   0.72210
 Alpha virt. eigenvalues --    0.72350   0.72791   0.72831   0.72918   0.73305
 Alpha virt. eigenvalues --    0.73433   0.73680   0.73934   0.74104   0.74132
 Alpha virt. eigenvalues --    0.74380   0.74533   0.74624   0.74951   0.75145
 Alpha virt. eigenvalues --    0.75248   0.75509   0.75775   0.75854   0.76028
 Alpha virt. eigenvalues --    0.76260   0.76281   0.76489   0.76517   0.76863
 Alpha virt. eigenvalues --    0.76926   0.77048   0.77119   0.77359   0.77547
 Alpha virt. eigenvalues --    0.77685   0.77911   0.78042   0.78355   0.78409
 Alpha virt. eigenvalues --    0.78724   0.78841   0.78964   0.79109   0.79300
 Alpha virt. eigenvalues --    0.79337   0.79641   0.79750   0.79967   0.80185
 Alpha virt. eigenvalues --    0.80486   0.80773   0.80955   0.81060   0.81293
 Alpha virt. eigenvalues --    0.81353   0.81509   0.81749   0.81990   0.82164
 Alpha virt. eigenvalues --    0.82325   0.82392   0.82451   0.82929   0.83088
 Alpha virt. eigenvalues --    0.83199   0.83329   0.83460   0.83542   0.83706
 Alpha virt. eigenvalues --    0.83985   0.84198   0.84415   0.84528   0.84666
 Alpha virt. eigenvalues --    0.84796   0.85040   0.85307   0.85379   0.85828
 Alpha virt. eigenvalues --    0.85860   0.85961   0.86190   0.86299   0.86504
 Alpha virt. eigenvalues --    0.86756   0.86932   0.87045   0.87167   0.87380
 Alpha virt. eigenvalues --    0.87561   0.87674   0.88007   0.88103   0.88150
 Alpha virt. eigenvalues --    0.88423   0.88508   0.88581   0.88862   0.89118
 Alpha virt. eigenvalues --    0.89316   0.89380   0.89708   0.89819   0.90071
 Alpha virt. eigenvalues --    0.90295   0.90517   0.90664   0.90717   0.90855
 Alpha virt. eigenvalues --    0.91090   0.91287   0.91375   0.91605   0.91905
 Alpha virt. eigenvalues --    0.92069   0.92299   0.92441   0.92538   0.92605
 Alpha virt. eigenvalues --    0.92918   0.93078   0.93253   0.93568   0.93682
 Alpha virt. eigenvalues --    0.93942   0.94075   0.94196   0.94268   0.94545
 Alpha virt. eigenvalues --    0.94729   0.94894   0.95052   0.95170   0.95504
 Alpha virt. eigenvalues --    0.95724   0.95811   0.96083   0.96261   0.96299
 Alpha virt. eigenvalues --    0.96545   0.96587   0.96827   0.96997   0.97199
 Alpha virt. eigenvalues --    0.97483   0.97499   0.97582   0.98027   0.98187
 Alpha virt. eigenvalues --    0.98299   0.98376   0.98583   0.98862   0.98936
 Alpha virt. eigenvalues --    0.99083   0.99147   0.99595   0.99666   0.99858
 Alpha virt. eigenvalues --    1.00218   1.00320   1.00545   1.00693   1.00729
 Alpha virt. eigenvalues --    1.00934   1.01196   1.01525   1.01596   1.01819
 Alpha virt. eigenvalues --    1.02061   1.02325   1.02530   1.02614   1.02834
 Alpha virt. eigenvalues --    1.02950   1.03239   1.03611   1.03715   1.03793
 Alpha virt. eigenvalues --    1.04221   1.04467   1.04547   1.04882   1.05051
 Alpha virt. eigenvalues --    1.05200   1.05316   1.05630   1.05862   1.06030
 Alpha virt. eigenvalues --    1.06168   1.06394   1.06472   1.06716   1.06954
 Alpha virt. eigenvalues --    1.07060   1.07206   1.07397   1.07762   1.07849
 Alpha virt. eigenvalues --    1.07925   1.08129   1.08460   1.08754   1.08881
 Alpha virt. eigenvalues --    1.09065   1.09260   1.09531   1.09907   1.10141
 Alpha virt. eigenvalues --    1.10207   1.10453   1.10561   1.10761   1.10880
 Alpha virt. eigenvalues --    1.11211   1.11423   1.11542   1.11793   1.11924
 Alpha virt. eigenvalues --    1.11994   1.12225   1.12396   1.12450   1.12817
 Alpha virt. eigenvalues --    1.13088   1.13274   1.13341   1.13517   1.13725
 Alpha virt. eigenvalues --    1.13976   1.14318   1.14425   1.14607   1.14786
 Alpha virt. eigenvalues --    1.14882   1.14919   1.14996   1.15470   1.15632
 Alpha virt. eigenvalues --    1.15695   1.16027   1.16066   1.16140   1.16481
 Alpha virt. eigenvalues --    1.16552   1.16779   1.17017   1.17214   1.17333
 Alpha virt. eigenvalues --    1.17613   1.17708   1.17897   1.18160   1.18379
 Alpha virt. eigenvalues --    1.18569   1.18738   1.19021   1.19222   1.19376
 Alpha virt. eigenvalues --    1.19723   1.19823   1.20066   1.20279   1.20349
 Alpha virt. eigenvalues --    1.20714   1.20736   1.20975   1.21392   1.21585
 Alpha virt. eigenvalues --    1.21658   1.21827   1.22003   1.22530   1.22536
 Alpha virt. eigenvalues --    1.22778   1.22959   1.23167   1.23317   1.23487
 Alpha virt. eigenvalues --    1.23670   1.23878   1.24003   1.24146   1.24454
 Alpha virt. eigenvalues --    1.24616   1.24791   1.25120   1.25448   1.25548
 Alpha virt. eigenvalues --    1.25812   1.25973   1.26191   1.26578   1.26692
 Alpha virt. eigenvalues --    1.26830   1.27055   1.27301   1.27640   1.27753
 Alpha virt. eigenvalues --    1.27875   1.28138   1.28296   1.28411   1.28656
 Alpha virt. eigenvalues --    1.29115   1.29189   1.29333   1.29546   1.29713
 Alpha virt. eigenvalues --    1.29918   1.30109   1.30281   1.30536   1.30780
 Alpha virt. eigenvalues --    1.31070   1.31152   1.31380   1.31482   1.31684
 Alpha virt. eigenvalues --    1.31751   1.32072   1.32204   1.32389   1.32499
 Alpha virt. eigenvalues --    1.32575   1.32691   1.32955   1.33119   1.33324
 Alpha virt. eigenvalues --    1.33613   1.33701   1.33823   1.33984   1.34149
 Alpha virt. eigenvalues --    1.34298   1.34562   1.34720   1.34865   1.34961
 Alpha virt. eigenvalues --    1.35101   1.35249   1.35538   1.35707   1.35865
 Alpha virt. eigenvalues --    1.35908   1.36010   1.36338   1.36613   1.36790
 Alpha virt. eigenvalues --    1.36947   1.37232   1.37450   1.37510   1.37573
 Alpha virt. eigenvalues --    1.37822   1.38124   1.38218   1.38460   1.38500
 Alpha virt. eigenvalues --    1.38862   1.38969   1.39178   1.39311   1.39591
 Alpha virt. eigenvalues --    1.39738   1.40071   1.40372   1.40448   1.40710
 Alpha virt. eigenvalues --    1.40775   1.40870   1.41027   1.41362   1.41616
 Alpha virt. eigenvalues --    1.41809   1.41962   1.41976   1.42610   1.42699
 Alpha virt. eigenvalues --    1.42955   1.43120   1.43247   1.43279   1.43716
 Alpha virt. eigenvalues --    1.44089   1.44130   1.44369   1.44503   1.44636
 Alpha virt. eigenvalues --    1.45007   1.45341   1.45463   1.45624   1.45777
 Alpha virt. eigenvalues --    1.46199   1.46260   1.46352   1.46743   1.47113
 Alpha virt. eigenvalues --    1.47304   1.47598   1.47777   1.47888   1.47983
 Alpha virt. eigenvalues --    1.48235   1.48293   1.48760   1.48993   1.49197
 Alpha virt. eigenvalues --    1.49563   1.49621   1.49875   1.49945   1.50266
 Alpha virt. eigenvalues --    1.50388   1.50438   1.50875   1.51128   1.51299
 Alpha virt. eigenvalues --    1.51406   1.51511   1.51745   1.51877   1.52191
 Alpha virt. eigenvalues --    1.52297   1.52734   1.52864   1.52986   1.53206
 Alpha virt. eigenvalues --    1.53499   1.53605   1.53836   1.53930   1.54066
 Alpha virt. eigenvalues --    1.54694   1.54730   1.54867   1.55258   1.55340
 Alpha virt. eigenvalues --    1.55776   1.55928   1.56073   1.56329   1.56719
 Alpha virt. eigenvalues --    1.56831   1.57077   1.57085   1.57148   1.57909
 Alpha virt. eigenvalues --    1.58161   1.58490   1.58599   1.58760   1.58971
 Alpha virt. eigenvalues --    1.59239   1.59322   1.59431   1.59754   1.60129
 Alpha virt. eigenvalues --    1.60465   1.60489   1.60601   1.60857   1.61369
 Alpha virt. eigenvalues --    1.61462   1.61735   1.61754   1.62041   1.62141
 Alpha virt. eigenvalues --    1.62298   1.62595   1.62999   1.63160   1.63287
 Alpha virt. eigenvalues --    1.63527   1.63829   1.63878   1.64160   1.64467
 Alpha virt. eigenvalues --    1.64597   1.64929   1.65026   1.65438   1.65519
 Alpha virt. eigenvalues --    1.65789   1.65971   1.66229   1.66401   1.66585
 Alpha virt. eigenvalues --    1.66707   1.66873   1.67183   1.67466   1.67535
 Alpha virt. eigenvalues --    1.67767   1.67864   1.68064   1.68466   1.68667
 Alpha virt. eigenvalues --    1.68726   1.68955   1.69093   1.69356   1.69910
 Alpha virt. eigenvalues --    1.70265   1.70305   1.70811   1.70875   1.71008
 Alpha virt. eigenvalues --    1.71255   1.71483   1.71644   1.71670   1.71848
 Alpha virt. eigenvalues --    1.72244   1.72371   1.72573   1.72884   1.72972
 Alpha virt. eigenvalues --    1.73478   1.73553   1.73791   1.74101   1.74164
 Alpha virt. eigenvalues --    1.74501   1.74568   1.74769   1.74803   1.75173
 Alpha virt. eigenvalues --    1.75568   1.75702   1.75916   1.76131   1.76606
 Alpha virt. eigenvalues --    1.76741   1.76865   1.76900   1.77173   1.77363
 Alpha virt. eigenvalues --    1.77886   1.78147   1.78249   1.78548   1.78744
 Alpha virt. eigenvalues --    1.79028   1.79250   1.79667   1.79939   1.80264
 Alpha virt. eigenvalues --    1.80642   1.81078   1.81102   1.81469   1.81496
 Alpha virt. eigenvalues --    1.81812   1.82114   1.82283   1.82402   1.82573
 Alpha virt. eigenvalues --    1.82869   1.83136   1.83484   1.83636   1.83828
 Alpha virt. eigenvalues --    1.84063   1.84419   1.84633   1.84838   1.85153
 Alpha virt. eigenvalues --    1.85639   1.85742   1.85990   1.86275   1.86387
 Alpha virt. eigenvalues --    1.86865   1.87105   1.87276   1.87629   1.87780
 Alpha virt. eigenvalues --    1.87961   1.88181   1.88427   1.88659   1.89320
 Alpha virt. eigenvalues --    1.89536   1.89985   1.90472   1.90505   1.90693
 Alpha virt. eigenvalues --    1.90909   1.91138   1.91480   1.91637   1.92116
 Alpha virt. eigenvalues --    1.92288   1.92817   1.93184   1.93505   1.93837
 Alpha virt. eigenvalues --    1.94117   1.94260   1.94423   1.94516   1.94988
 Alpha virt. eigenvalues --    1.95304   1.95863   1.96091   1.96456   1.96701
 Alpha virt. eigenvalues --    1.97058   1.97232   1.97542   1.97974   1.98111
 Alpha virt. eigenvalues --    1.98281   1.98657   1.98703   1.98805   1.99274
 Alpha virt. eigenvalues --    1.99601   1.99949   2.00310   2.00637   2.00693
 Alpha virt. eigenvalues --    2.00934   2.01378   2.01825   2.02066   2.02136
 Alpha virt. eigenvalues --    2.02526   2.02745   2.03198   2.03340   2.03898
 Alpha virt. eigenvalues --    2.03950   2.04232   2.04540   2.04680   2.04891
 Alpha virt. eigenvalues --    2.04949   2.05181   2.05712   2.05884   2.06145
 Alpha virt. eigenvalues --    2.06302   2.06668   2.06949   2.07022   2.07152
 Alpha virt. eigenvalues --    2.07407   2.07501   2.07883   2.08117   2.08173
 Alpha virt. eigenvalues --    2.08593   2.08912   2.09209   2.09282   2.09693
 Alpha virt. eigenvalues --    2.09834   2.09981   2.10295   2.10611   2.10766
 Alpha virt. eigenvalues --    2.10959   2.11176   2.11447   2.11587   2.11813
 Alpha virt. eigenvalues --    2.11909   2.12405   2.12782   2.12947   2.13095
 Alpha virt. eigenvalues --    2.13255   2.13545   2.13757   2.13810   2.14044
 Alpha virt. eigenvalues --    2.14546   2.14706   2.14834   2.15270   2.15588
 Alpha virt. eigenvalues --    2.16076   2.16217   2.17010   2.17390   2.17558
 Alpha virt. eigenvalues --    2.17749   2.18076   2.18338   2.18832   2.19293
 Alpha virt. eigenvalues --    2.19762   2.19824   2.20302   2.20683   2.20810
 Alpha virt. eigenvalues --    2.20880   2.21577   2.21634   2.22203   2.22517
 Alpha virt. eigenvalues --    2.22837   2.23185   2.23381   2.23461   2.23948
 Alpha virt. eigenvalues --    2.24224   2.24508   2.24820   2.25011   2.25543
 Alpha virt. eigenvalues --    2.25965   2.26411   2.26610   2.26768   2.27184
 Alpha virt. eigenvalues --    2.27405   2.27666   2.28103   2.28165   2.28379
 Alpha virt. eigenvalues --    2.28518   2.28952   2.29273   2.29646   2.29903
 Alpha virt. eigenvalues --    2.30094   2.30445   2.30777   2.31077   2.31812
 Alpha virt. eigenvalues --    2.32015   2.32501   2.32724   2.32777   2.33022
 Alpha virt. eigenvalues --    2.33530   2.33590   2.33802   2.34369   2.34590
 Alpha virt. eigenvalues --    2.34804   2.35014   2.35183   2.35385   2.36075
 Alpha virt. eigenvalues --    2.36123   2.36248   2.36694   2.36901   2.36995
 Alpha virt. eigenvalues --    2.37476   2.37597   2.37761   2.37880   2.37977
 Alpha virt. eigenvalues --    2.38698   2.38756   2.38980   2.39654   2.39862
 Alpha virt. eigenvalues --    2.39968   2.40200   2.40277   2.40459   2.40731
 Alpha virt. eigenvalues --    2.40958   2.41334   2.41587   2.42129   2.42263
 Alpha virt. eigenvalues --    2.42541   2.42800   2.43031   2.43188   2.43648
 Alpha virt. eigenvalues --    2.43726   2.43784   2.44147   2.44801   2.45192
 Alpha virt. eigenvalues --    2.45269   2.45651   2.46168   2.46364   2.46826
 Alpha virt. eigenvalues --    2.47053   2.47502   2.47938   2.48109   2.48295
 Alpha virt. eigenvalues --    2.48460   2.49039   2.49287   2.49678   2.50789
 Alpha virt. eigenvalues --    2.51439   2.51465   2.52183   2.52347   2.52526
 Alpha virt. eigenvalues --    2.52878   2.53263   2.53674   2.54367   2.54450
 Alpha virt. eigenvalues --    2.54690   2.54836   2.55313   2.55538   2.55914
 Alpha virt. eigenvalues --    2.56230   2.56898   2.57071   2.57459   2.57779
 Alpha virt. eigenvalues --    2.57937   2.58256   2.58623   2.58781   2.59133
 Alpha virt. eigenvalues --    2.59391   2.59589   2.59961   2.60434   2.60499
 Alpha virt. eigenvalues --    2.60696   2.60930   2.61362   2.61543   2.61862
 Alpha virt. eigenvalues --    2.62547   2.62711   2.62910   2.62992   2.63448
 Alpha virt. eigenvalues --    2.63670   2.63878   2.64064   2.64638   2.64981
 Alpha virt. eigenvalues --    2.65205   2.65354   2.65612   2.65984   2.66323
 Alpha virt. eigenvalues --    2.66940   2.67063   2.67291   2.67521   2.67850
 Alpha virt. eigenvalues --    2.67943   2.68248   2.68761   2.68965   2.69608
 Alpha virt. eigenvalues --    2.69662   2.69969   2.70016   2.70701   2.70822
[...]
 Alpha virt. eigenvalues --    4.59600   4.60064   4.60153   4.60752   4.61478
 Alpha virt. eigenvalues --    4.61936   4.62653   4.62988   4.63030   4.63451
 Alpha virt. eigenvalues --    4.64174   4.64437   4.64813   4.65138   4.65279
 Alpha virt. eigenvalues --    4.65641   4.65962   4.66170   4.66339   4.66595
 Alpha virt. eigenvalues --    4.66945   4.67103   4.67141   4.67640   4.67872
 Alpha virt. eigenvalues --    4.68330   4.68470   4.68773   4.69255   4.69574
 Alpha virt. eigenvalues --    4.69772   4.70073   4.70851   4.70960   4.71191
 Alpha virt. eigenvalues --    4.71422   4.71572   4.72052   4.72587   4.72711
 Alpha virt. eigenvalues --    4.73147   4.73295   4.73550   4.73949   4.74614
 Alpha virt. eigenvalues --    4.74808   4.74911   4.75472   4.75632   4.76186
 Alpha virt. eigenvalues --    4.76253   4.76472   4.76550   4.76667   4.76751
 Alpha virt. eigenvalues --    4.77005   4.77737   4.78151   4.78406   4.78665
 Alpha virt. eigenvalues --    4.79059   4.79402   4.79806   4.80070   4.80123
 Alpha virt. eigenvalues --    4.80563   4.80743   4.81108   4.81495   4.81795
 Alpha virt. eigenvalues --    4.82166   4.83158   4.83452   4.83743   4.83960
 Alpha virt. eigenvalues --    4.84643   4.84864   4.85035   4.85572   4.85800
 Alpha virt. eigenvalues --    4.86301   4.86923   4.87830   4.87954   4.89137
 Alpha virt. eigenvalues --    4.89412   4.89661   4.90209   4.90445   4.90767
 Alpha virt. eigenvalues --    4.90998   4.91381   4.91632   4.92027   4.92351
 Alpha virt. eigenvalues --    4.92754   4.93015   4.93750   4.94122   4.94451
 Alpha virt. eigenvalues --    4.94513   4.94589   4.94819   4.95553   4.95616
 Alpha virt. eigenvalues --    4.97966   4.99085   4.99522   4.99817   5.00092
 Alpha virt. eigenvalues --    5.00770   5.00927   5.01081   5.01576   5.02343
 Alpha virt. eigenvalues --    5.02601   5.02853   5.03305   5.03574   5.03807
 Alpha virt. eigenvalues --    5.04238   5.04679   5.04983   5.05463   5.05931
 Alpha virt. eigenvalues --    5.06344   5.07149   5.07697   5.08056   5.08214
 Alpha virt. eigenvalues --    5.09311   5.09607   5.10041   5.10628   5.10715
 Alpha virt. eigenvalues --    5.11383   5.11545   5.12072   5.12674   5.12709
 Alpha virt. eigenvalues --    5.13131   5.13662   5.14016   5.14379   5.14571
 Alpha virt. eigenvalues --    5.15101   5.15425   5.16109   5.16242   5.16594
 Alpha virt. eigenvalues --    5.17265   5.17822   5.17977   5.18542   5.18716
 Alpha virt. eigenvalues --    5.18929   5.19429   5.19650   5.20007   5.20302
 Alpha virt. eigenvalues --    5.20523   5.20642   5.20892   5.21565   5.21714
 Alpha virt. eigenvalues --    5.21822   5.22085   5.22347   5.22779   5.22924
 Alpha virt. eigenvalues --    5.23112   5.23173   5.23725   5.24058   5.24340
 Alpha virt. eigenvalues --    5.24744   5.25261   5.25421   5.25611   5.26044
 Alpha virt. eigenvalues --    5.26209   5.26420   5.27053   5.27151   5.27457
 Alpha virt. eigenvalues --    5.28071   5.28394   5.29044   5.29556   5.30081
 Alpha virt. eigenvalues --    5.30311   5.31011   5.31463   5.31602   5.31684
 Alpha virt. eigenvalues --    5.32273   5.32439   5.32883   5.32986   5.33428
 Alpha virt. eigenvalues --    5.34060   5.34138   5.34402   5.34967   5.35286
 Alpha virt. eigenvalues --    5.35393   5.35941   5.36168   5.36248   5.36560
 Alpha virt. eigenvalues --    5.36721   5.37585   5.37780   5.37968   5.38787
 Alpha virt. eigenvalues --    5.39515   5.39689   5.39914   5.40431   5.41081
 Alpha virt. eigenvalues --    5.41360   5.41651   5.42026   5.42201   5.42656
 Alpha virt. eigenvalues --    5.43251   5.43904   5.44054   5.44224   5.44983
 Alpha virt. eigenvalues --    5.45549   5.46525   5.46613   5.47077   5.47486
 Alpha virt. eigenvalues --    5.47624   5.48034   5.48414   5.49051   5.49339
 Alpha virt. eigenvalues --    5.49530   5.50223   5.50574   5.51020   5.51530
 Alpha virt. eigenvalues --    5.51946   5.52399   5.53058   5.53846   5.54249
 Alpha virt. eigenvalues --    5.54758   5.55196   5.55566   5.55999   5.56141
 Alpha virt. eigenvalues --    5.56852   5.57439   5.57883   5.58150   5.58473
 Alpha virt. eigenvalues --    5.59030   5.59127   5.60041   5.60555   5.60910
 Alpha virt. eigenvalues --    5.61174   5.61564   5.61978   5.62526   5.62826
 Alpha virt. eigenvalues --    5.63350   5.64014   5.64316   5.64397   5.64833
 Alpha virt. eigenvalues --    5.65400   5.65523   5.66430   5.67005   5.67223
 Alpha virt. eigenvalues --    5.68491   5.68795   5.69309   5.69841   5.70346
 Alpha virt. eigenvalues --    5.70631   5.70935   5.71467   5.72626   5.73436
 Alpha virt. eigenvalues --    5.74513   5.75048   5.75772   5.76185   5.76688
 Alpha virt. eigenvalues --    5.77266   5.77785   5.78885   5.80185   5.80698
 Alpha virt. eigenvalues --    5.81447   5.82125   5.82520   5.83169   5.83661
 Alpha virt. eigenvalues --    5.84837   5.85271   5.85855   5.87752   5.88242
 Alpha virt. eigenvalues --    5.89369   5.90729   5.92342   5.94209   5.95365
 Alpha virt. eigenvalues --    5.97124   5.97982   5.98280   6.01006   6.01808
 Alpha virt. eigenvalues --    6.02343   6.02443   6.04028   6.05524   6.06204
 Alpha virt. eigenvalues --    6.06858   6.07571   6.07792   6.09246   6.10867
 Alpha virt. eigenvalues --    6.12222   6.12621   6.14967   6.16363   6.16887
 Alpha virt. eigenvalues --    6.22359   6.23014   6.23266   6.25147   6.35213
 Alpha virt. eigenvalues --    6.41828   6.42074   6.45298   6.46578   6.46686
 Alpha virt. eigenvalues --    6.48765   6.53114   6.55472   6.56318   6.56909
 Alpha virt. eigenvalues --    6.58288   6.58813   6.63240   6.69427   6.70401
 Alpha virt. eigenvalues --    6.70975   6.75943   6.76244   6.77051   6.78490
 Alpha virt. eigenvalues --    6.78913   6.79116   6.79938   6.82117   6.82571
 Alpha virt. eigenvalues --    6.82642   6.83274   6.83431   6.84107   6.84320
 Alpha virt. eigenvalues --    6.84489   6.84556   6.84793   6.85287   6.85325
 Alpha virt. eigenvalues --    6.85666   6.85715   6.85954   6.85995   6.86432
 Alpha virt. eigenvalues --    6.86510   6.87078   6.87145   6.90503   6.92025
 Alpha virt. eigenvalues --    6.94081   6.96650   6.96737   6.97487   6.97652
 Alpha virt. eigenvalues --    6.97756   6.97809   7.00590   7.01442   7.01515
 Alpha virt. eigenvalues --    7.01893   7.03193   7.05205   7.05367   7.08470
 Alpha virt. eigenvalues --    7.08799   7.09184   7.10254   7.12958   7.13353
 Alpha virt. eigenvalues --    7.13514   7.18402   7.20635   7.22887   7.25028
 Alpha virt. eigenvalues --    7.33399   7.35823   7.36459   7.36742   7.36967
 Alpha virt. eigenvalues --    7.39588   7.43215   7.43729   7.46155   7.48032
 Alpha virt. eigenvalues --    7.49283   7.55758   7.56662   7.58854   7.59372
 Alpha virt. eigenvalues --    7.62314   7.62870   7.64582   7.88830   7.90434
 Alpha virt. eigenvalues --    7.96814   8.05520   8.27905   8.28119   8.29875
 Alpha virt. eigenvalues --    8.30781   8.30818   8.31218   8.36689   8.44921
 Alpha virt. eigenvalues --    8.45758   8.48674   8.49249   8.56733   8.57323
 Alpha virt. eigenvalues --    8.57596   8.67007   8.67995   8.75198   8.75720
 Alpha virt. eigenvalues --    8.76452   8.78120   8.78753   8.89623   8.90134
 Alpha virt. eigenvalues --    8.95183   8.95438   8.99738   8.99874   9.01642
 Alpha virt. eigenvalues --    9.04520   9.05602   9.10345   9.12147   9.16269
 Alpha virt. eigenvalues --    9.16638   9.23563   9.52597   9.60557   9.78412
 Alpha virt. eigenvalues --    9.83221  10.14871  10.18091  22.56713  22.61163
 Alpha virt. eigenvalues --   22.67711  22.70610  22.79454  22.82865  22.86212
 Alpha virt. eigenvalues --   22.87913  22.89340  22.93345  23.00427  23.00853
 Alpha virt. eigenvalues --   23.02118  23.02895  23.05030  23.06794  23.07119
 Alpha virt. eigenvalues --   23.08525  23.10008  23.10124  23.12194  23.12628
 Alpha virt. eigenvalues --   23.15981  23.16266  23.18344  23.18968  23.20269
 Alpha virt. eigenvalues --   23.20508  23.20887  23.21020  23.22389  23.23900
 Alpha virt. eigenvalues --   23.24263  23.26274  23.26802  23.27484  23.28108
 Alpha virt. eigenvalues --   23.29730  23.30830  23.32486  23.34514  23.36545
 Alpha virt. eigenvalues --   23.37655  23.40250  23.42286  23.42878  23.44526
 Alpha virt. eigenvalues --   23.52727  23.54321  23.55332  23.61194  23.72024
 Alpha virt. eigenvalues --   23.79730  23.82361  23.90522  24.12680  24.13647
 Alpha virt. eigenvalues --   24.16380  24.23246  24.28099  24.34328  24.40324
 Alpha virt. eigenvalues --   32.58655  32.78457  33.24498  34.57957  34.61697
 Alpha virt. eigenvalues --   34.91752  42.90636  43.97249  44.08192  44.18243
 Alpha virt. eigenvalues --   44.26737  44.34763  57.14974  57.16081  57.23811
 Alpha virt. eigenvalues --   57.24559  57.46311  57.47146  57.50259 117.84376
          Condensed to atoms (all electrons):
 Mulliken charges:
               1
     1  C    0.163357
     2  C   -0.056016
     3  C    0.063236
     4  C   -0.161260
     5  C    0.196324
     6  N   -0.289214
     7  H    0.163169
     8  C   -0.121083
     9  C    0.204707
    10  C   -0.195589
    11  C   -0.210135
    12  C   -0.116183
    13  H    0.151444
    14  H    0.158002
    15  H    0.147788
    16  C    0.335524
    17  C    0.008944
    18  C   -0.205335
    19  C   -0.255598
    20  C   -0.159783
    21  H    0.144998
    22  C   -0.139960
    23  H    0.249093
    24  C   -0.156613
    25  H    0.148501
    26  H    0.150108
    27  H    0.153534
    28  F   -0.220883
    29  C   -0.222251
    30  H    0.116533
    31  H    0.114598
    32  H    0.075885
    33  C   -0.035495
    34  C   -0.053889
    35  C    0.004068
    36  H    0.093432
    37  H    0.112939
    38  C    0.009712
    39  H    0.111808
    40  H    0.113045
    41  H    0.077917
    42  H    0.108932
    43  H    0.079345
    44  H    0.104646
    45  N    0.066936
    46  O   -0.329360
    47  I   -0.021924
    48  H    0.214433
    49  C   -0.145561
    50  C   -0.172143
    51  C   -0.035333
    52  C   -0.065396
    53  C   -0.145712
    54  C   -0.134941
    55  H    0.153701
    56  H    0.160985
    57  C    0.063170
    58  C   -0.071668
    59  H    0.146230
    60  H    0.152693
    61  C   -0.166527
    62  C   -0.078647
    63  H    0.146656
    64  C    0.126190
    65  C   -0.097647
    66  C   -0.068691
    67  C   -0.102319
    68  C   -0.037806
    69  C   -0.182071
    70  C   -0.121676
    71  C   -0.143334
    72  C   -0.145730
    73  H    0.163348
    74  H    0.145657
    75  C   -0.138101
    76  H    0.145957
    77  H    0.154254
    78  H    0.153145
    79  S    1.003271
    80  O   -0.557500
    81  O   -0.597715
    82  S    0.853408
    83  O   -0.510876
    84  O   -0.515907
    85  N   -0.469583
    86  C   -0.006348
    87  C    0.314047
    88  C    0.049790
    89  C    0.234058
    90  C   -0.085116
    91  C   -0.154517
    92  C   -0.193998
    93  C   -0.097726
    94  C   -0.138317
    95  H    0.158074
    96  C   -0.137944
    97  H    0.159793
    98  H    0.159095
    99  H    0.160600
   100  C   -0.044975
   101  C   -0.234222
   102  C   -0.159535
   103  C   -0.110187
   104  H    0.171812
   105  C   -0.100892
   106  C   -0.140459
   107  H    0.155246
   108  H    0.155847
   109  H    0.153084
   110  C    0.541512
   111  F   -0.188177
   112  F   -0.188091
   113  F   -0.180120
   114  C    0.555525
   115  F   -0.184995
   116  F   -0.185278
   117  F   -0.193754
 Sum of Mulliken charges =  -0.00000
 Mulliken charges with hydrogens summed into heavy atoms:
               1
     1  C    0.163357
     2  C    0.158417
     3  C    0.063236
     4  C    0.001909
     5  C    0.196324
     6  N   -0.289214
     8  C   -0.121083
     9  C    0.204707
    10  C   -0.044145
    11  C   -0.062347
    12  C    0.041819
    16  C    0.335524
    17  C    0.008944
    18  C   -0.060338
    19  C   -0.006505
    20  C   -0.011282
    22  C    0.010148
    24  C   -0.003079
    28  F   -0.220883
    29  C    0.084765
    33  C    0.170876
    34  C    0.170964
    35  C    0.190918
    38  C    0.193704
    45  N    0.066936
    46  O   -0.329360
    47  I   -0.021924
    49  C    0.008139
    50  C   -0.011158
    51  C   -0.035333
    52  C   -0.065396
    53  C    0.000518
    54  C    0.017752
    57  C    0.063170
    58  C    0.074988
    61  C   -0.166527
    62  C   -0.078647
    64  C    0.126190
    65  C   -0.097647
    66  C   -0.068691
    67  C   -0.102319
    68  C   -0.037806
    69  C   -0.018723
    70  C    0.023981
    71  C    0.002622
    72  C    0.008524
    75  C    0.015044
    79  S    1.003271
    80  O   -0.557500
    81  O   -0.597715
    82  S    0.853408
    83  O   -0.510876
    84  O   -0.515907
    85  N   -0.469583
    86  C   -0.006348
    87  C    0.314047
    88  C    0.049790
    89  C    0.234058
    90  C   -0.085116
    91  C   -0.154517
    92  C   -0.035925
    93  C    0.062067
    94  C    0.020779
    96  C    0.022655
   100  C   -0.044975
   101  C   -0.062411
   102  C   -0.159535
   103  C    0.045059
   105  C    0.054955
   106  C    0.012625
   110  C    0.541512
   111  F   -0.188177
   112  F   -0.188091
   113  F   -0.180120
   114  C    0.555525
   115  F   -0.184995
   116  F   -0.185278
   117  F   -0.193754
 Electronic spatial extent (au):  <R**2>=          60504.0146
 Charge=             -0.0000 electrons
 Dipole moment (field-independent basis, Debye):
    X=              3.4104    Y=             -9.9437    Z=              1.9722  Tot=             10.6957
 Quadrupole moment (field-independent basis, Debye-Ang):
   XX=           -433.6195   YY=           -444.1420   ZZ=           -452.0347
   XY=            -17.4987   XZ=             -9.5080   YZ=             30.4379
 Traceless Quadrupole moment (field-independent basis, Debye-Ang):
   XX=              9.6459   YY=             -0.8766   ZZ=             -8.7693
   XY=            -17.4987   XZ=             -9.5080   YZ=             30.4379
 Octapole moment (field-independent basis, Debye-Ang**2):
  XXX=            342.9337  YYY=           -432.7956  ZZZ=            274.7990  XYY=            -95.6245
  XXY=           -394.0105  XXZ=             42.3076  XZZ=              0.7503  YZZ=           -230.9043
  YYZ=            135.8012  XYZ=            -86.0353
 Hexadecapole moment (field-independent basis, Debye-Ang**3):
 XXXX=         -34433.1893 YYYY=         -27447.9257 ZZZZ=         -14541.3007 XXXY=           -804.3457
 XXXZ=           3071.8744 YYYX=           -216.1914 YYYZ=          -1423.1272 ZZZX=           3071.0228
 ZZZY=          -1466.9805 XXYY=         -10845.4927 XXZZ=          -7700.8151 YYZZ=          -7460.8377
 XXYZ=            225.6718 YYXZ=           1354.1806 ZZXY=            -59.9401
 N-N= 1.576388728100D+04 E-N=-4.235596771884D+04  KE= 4.441826631627D+03
 Leave Link  601 at Sun Feb  9 11:06:54 2025, MaxMem=  7247757312 cpu:              14.1 elap:               1.0
 (Enter /ihome/crc/install/gaussian/c01/avx2/tar/g16/l9999.exe)
 Unable to Open any file for archive entry.
 1\1\GINC-SMP-N253\SP\RB3LYP\def2TZVPP\C60H39F7I1N3O5S2\BIM12\09-Feb-20
 25\0\\#p b3lyp def2tzvpp scf=maxcycle=128 nosymm scrf=(smd,solvent=pro
 pylethanoate) empiricaldispersion=gd3bj\\alkyneCF3_S-ax-R_02_rotSS\\0,
 1\C,0,2.011516,-2.037941,-0.978465\C,0,0.831566,-2.33736,-1.85008\C,0,
 -0.483672,-2.099735,-1.205735\C,0,-0.536059,-1.927118,0.131715\C,0,0.6
 85361,-1.875728,0.902138\N,0,1.925605,-1.863963,0.290316\H,0,-1.492674
 ,-1.709986,0.60089\C,0,3.365651,-2.037411,-1.59697\C,0,3.731857,-1.200
 693,-2.673631\C,0,5.014451,-1.339643,-3.224582\C,0,5.566434,-3.101163,
 -1.665413\C,0,5.915429,-2.280524,-2.735193\H,0,5.314377,-0.673326,-4.0
 34437\H,0,6.906926,-2.367708,-3.182192\H,0,6.243891,-3.850307,-1.25484
 9\C,0,4.305128,-2.953909,-1.112019\C,0,2.819744,-0.157517,-3.215399\C,
 0,2.752776,0.057145,-4.601709\C,0,2.039313,0.642703,-2.367239\C,0,1.92
 5154,1.046744,-5.126046\H,0,3.341316,-0.570211,-5.273997\C,0,1.216078,
 1.637999,-2.896208\H,0,2.075778,0.518364,-1.281601\C,0,1.156887,1.8422
 63,-4.2738\H,0,1.877013,1.19476,-6.206298\H,0,0.613054,2.250304,-2.223
 688\H,0,0.508078,2.619461,-4.681087\F,0,3.958724,-3.759034,-0.103779\C
 ,0,-1.686893,-1.989034,-2.073334\H,0,-1.67031,-0.999334,-2.559504\H,0,
 -1.689837,-2.763234,-2.854794\H,0,-2.607728,-2.047468,-1.480104\C,0,-0
 .520333,-1.841371,3.047561\C,0,1.891696,-1.502411,2.996776\C,0,-0.2849
 05,-2.843209,4.173211\H,0,-1.386641,-2.153002,2.459182\H,0,-0.703383,-
 0.832639,3.44407\C,0,2.006176,-2.518127,4.124693\H,0,2.76493,-1.536688
 ,2.342104\H,0,1.776299,-0.488463,3.410803\H,0,-0.189824,-3.859156,3.74
 4405\H,0,-1.150914,-2.829115,4.847161\H,0,2.183545,-3.522926,3.696011\
 H,0,2.860001,-2.255083,4.762174\N,0,0.681819,-1.771098,2.210917\O,0,0.
 853796,-2.520867,4.925929\I,0,0.983188,-4.463917,-2.32283\H,0,0.910049
 ,-1.874832,-2.840126\C,0,-2.909727,7.344706,0.549289\C,0,-2.864269,5.9
 85901,0.751015\C,0,-1.627032,5.283867,0.700272\C,0,-0.444653,6.018375,
 0.400975\C,0,-0.520005,7.426099,0.206248\C,0,-1.725595,8.076883,0.2839
 14\H,0,-3.86819,7.864612,0.588031\H,0,-3.786741,5.437511,0.94222\C,0,-
 1.536444,3.866947,0.903399\C,0,0.783507,5.331368,0.264166\H,0,0.399301
 ,7.97151,-0.015911\H,0,-1.779016,9.155692,0.129497\C,0,0.864592,3.9601
 58,0.416322\C,0,-0.316818,3.223863,0.763727\H,0,1.683794,5.893185,0.00
 9604\C,0,-2.789653,3.096501,1.207301\C,0,-3.28238,2.149555,0.326005\C,
 0,-3.41894,3.283107,2.483518\C,0,-4.377182,1.303511,0.693379\C,0,-4.56
 7909,2.506165,2.806792\C,0,-2.923435,4.191884,3.461335\C,0,-5.013916,1
 .515689,1.901097\C,0,-5.214925,2.690674,4.060821\C,0,-3.562811,4.34367
 5,4.668646\H,0,-2.022984,4.769499,3.253461\H,0,-5.854525,0.878729,2.18
 1637\C,0,-4.727611,3.595097,4.970498\H,0,-6.098699,2.090025,4.284875\H
 ,0,-3.166113,5.044727,5.404659\H,0,-5.225528,3.731441,5.931769\S,0,-0.
 336236,1.424053,0.767751\O,0,-1.070525,1.0169,1.935319\O,0,1.005634,0.
 915778,0.707852\S,0,-2.319029,1.83027,-1.154034\O,0,-1.973553,3.105933
 ,-1.710418\O,0,-3.038239,0.949825,-2.020156\N,0,-1.061041,1.056125,-0.
 581978\C,0,2.131288,3.330455,0.185563\C,0,3.192998,2.789621,-0.041072\
 C,0,-4.79362,0.164675,-0.077238\C,0,-5.14299,-0.860892,-0.623101\C,0,-
 5.465773,-2.069603,-1.324159\C,0,-5.313902,-3.334664,-0.719688\C,0,-5.
 901012,-2.007697,-2.656105\C,0,-5.5983,-4.497353,-1.42968\C,0,-6.18534
 3,-3.174518,-3.361007\H,0,-6.007343,-1.030813,-3.12872\C,0,-6.037181,-
 4.418866,-2.751275\H,0,-5.473914,-5.467451,-0.948392\H,0,-6.523158,-3.
 108683,-4.396291\H,0,-6.25977,-5.332993,-3.302889\C,0,4.339309,1.94954
 7,-0.218228\C,0,4.396903,0.753792,0.515211\C,0,5.384445,2.251402,-1.11
 1577\C,0,5.492035,-0.09718,0.388465\H,0,3.559132,0.510566,1.170967\C,0
 ,6.476676,1.398232,-1.23358\C,0,6.537697,0.22875,-0.474241\H,0,5.52615
 4,-1.022985,0.966513\H,0,7.279717,1.646575,-1.927893\H,0,7.39837,-0.43
 4533,-0.570425\C,0,5.279082,3.482642,-1.970828\F,0,6.358711,3.650757,-
 2.738588\F,0,5.140102,4.595455,-1.242574\F,0,4.222608,3.42095,-2.78729
 6\C,0,-4.808148,-3.426351,0.696262\F,0,-4.777018,-4.685124,1.135887\F,
 0,-5.559599,-2.730049,1.551211\F,0,-3.556324,-2.949489,0.807834\\Versi
 on=ES64L-G16RevC.01\HF=-4645.018629\RMSD=2.267e-09\Dipole=1.3417691,-3
 .9121644,0.7759372\Quadrupole=7.171468,-0.6517352,-6.5197328,-13.00984
 09,-7.0689744,22.6298674\PG=C01 [X(C60H39F7I1N3O5S2)]\\@
 The archive entry for this job was punched.


 THE UNDERLYING PHYSICAL LAWS NECESSARY FOR THE 
 MATHEMATICAL THEORY OF A LARGE PART OF PHYSICS AND THE
 WHOLE OF CHEMISTRY ARE THUS COMPLETELY KNOWN, AND THE
 DIFFICULTY IS ONLY THAT THE EXACT APPLICATION OF THESE
 LAWS LEADS TO EQUATIONS MUCH TOO COMPLICATED 
 TO BE SOLUBLE.

                                        -- P. A. M. DIRAC, 1929
 Job cpu time:       1 days  1 hours 16 minutes  1.8 seconds.
 Elapsed time:       0 days  0 hours 48 minutes  1.2 seconds.
 File lengths (MBytes):  RWF=   5892 Int=      0 D2E=      0 Chk=    522 Scr=      1
 Normal termination of Gaussian 16 at Sun Feb  9 11:06:54 2025.
