 Entering Gaussian System, Link 0=g16
 Initial command:
 /opt/packages/gaussian/g16RevC.01/g16/l1.exe "/local/Gau-75843.inp" -scrdir="/local/"
 Entering Link 1 = /opt/packages/gaussian/g16RevC.01/g16/l1.exe PID=     75852.
  
 Copyright (c) 1988-2019, Gaussian, Inc.  All Rights Reserved.
  
 This is part of the Gaussian(R) 16 program.  It is based on
 the Gaussian(R) 09 system (copyright 2009, Gaussian, Inc.),
 the Gaussian(R) 03 system (copyright 2003, Gaussian, Inc.),
 the Gaussian(R) 98 system (copyright 1998, Gaussian, Inc.),
 the Gaussian(R) 94 system (copyright 1995, Gaussian, Inc.),
 the Gaussian 92(TM) system (copyright 1992, Gaussian, Inc.),
 the Gaussian 90(TM) system (copyright 1990, Gaussian, Inc.),
 the Gaussian 88(TM) system (copyright 1988, Gaussian, Inc.),
 the Gaussian 86(TM) system (copyright 1986, Carnegie Mellon
 University), and the Gaussian 82(TM) system (copyright 1983,
 Carnegie Mellon University). Gaussian is a federally registered
 trademark of Gaussian, Inc.
  
 This software contains proprietary and confidential information,
 including trade secrets, belonging to Gaussian, Inc.
  
 This software is provided under written license and may be
 used, copied, transmitted, or stored only in accord with that
 written license.
  
 The following legend is applicable only to US Government
 contracts under FAR:
  
                    RESTRICTED RIGHTS LEGEND
  
 Use, reproduction and disclosure by the US Government is
 subject to restrictions as set forth in subparagraphs (a)
 and (c) of the Commercial Computer Software - Restricted
 Rights clause in FAR 52.227-19.
  
 Gaussian, Inc.
 340 Quinnipiac St., Bldg. 40, Wallingford CT 06492
  
  
 ---------------------------------------------------------------
 Warning -- This program may not be used in any manner that
 competes with the business of Gaussian, Inc. or will provide
 assistance to any competitor of Gaussian, Inc.  The licensee
 of this program is prohibited from giving any competitor of
 Gaussian, Inc. access to this program.  By using this program,
 the user acknowledges that Gaussian, Inc. is engaged in the
 business of creating and licensing software in the field of
 computational chemistry and represents and warrants to the
 licensee that it is not a competitor of Gaussian, Inc. and that
 it will not use this program in any manner prohibited above.
 ---------------------------------------------------------------
  

 Cite this work as:
 Gaussian 16, Revision C.01,
 M. J. Frisch, G. W. Trucks, H. B. Schlegel, G. E. Scuseria, 
 M. A. Robb, J. R. Cheeseman, G. Scalmani, V. Barone, 
 G. A. Petersson, H. Nakatsuji, X. Li, M. Caricato, A. V. Marenich, 
 J. Bloino, B. G. Janesko, R. Gomperts, B. Mennucci, H. P. Hratchian, 
 J. V. Ortiz, A. F. Izmaylov, J. L. Sonnenberg, D. Williams-Young, 
 F. Ding, F. Lipparini, F. Egidi, J. Goings, B. Peng, A. Petrone, 
 T. Henderson, D. Ranasinghe, V. G. Zakrzewski, J. Gao, N. Rega, 
 G. Zheng, W. Liang, M. Hada, M. Ehara, K. Toyota, R. Fukuda, 
 J. Hasegawa, M. Ishida, T. Nakajima, Y. Honda, O. Kitao, H. Nakai, 
 T. Vreven, K. Throssell, J. A. Montgomery, Jr., J. E. Peralta, 
 F. Ogliaro, M. J. Bearpark, J. J. Heyd, E. N. Brothers, K. N. Kudin, 
 V. N. Staroverov, T. A. Keith, R. Kobayashi, J. Normand, 
 K. Raghavachari, A. P. Rendell, J. C. Burant, S. S. Iyengar, 
 J. Tomasi, M. Cossi, J. M. Millam, M. Klene, C. Adamo, R. Cammi, 
 J. W. Ochterski, R. L. Martin, K. Morokuma, O. Farkas, 
 J. B. Foresman, and D. J. Fox, Gaussian, Inc., Wallingford CT, 2019.
 
 ******************************************
 Gaussian 16:  ES64L-G16RevC.01  3-Jul-2019
                12-Jun-2024 
 ******************************************
 %nprocshared=32
 Will use up to   32 processors via shared memory.
 %mem=64GB
 ----------------------------------------------------------------------
 #p b3lyp def2tzvpp scf=maxcycle=128 nosymm scrf=(smd,solvent=propyleth
 anoate) empiricaldispersion=gd3bj
 ----------------------------------------------------------------------
 1/38=1,172=1/1;
 2/12=2,15=1,17=6,18=5,40=1/2;
 3/5=44,7=202,11=2,25=1,30=1,70=32201,72=169,74=-5,124=41/1,2,3;
 4//1;
 5/5=2,7=128,38=5,53=169/2;
 6/7=2,8=2,9=2,10=2,28=1/1;
 99/5=1,9=1/99;
 Leave Link    1 at Wed Jun 12 02:59:15 2024, MaxMem=  8589934592 cpu:               1.0 elap:               0.0
 (Enter /opt/packages/gaussian/g16RevC.01/g16/l101.exe)
 -------------------
 Title Card Required
 -------------------
 Symbolic Z-matrix:
 Charge =  0 Multiplicity = 1
 C                     2.04158  -1.73718  -0.48165 
 C                     0.65342  -1.92329  -1.00292 
 C                    -0.30181  -2.53956  -0.04605 
 C                     0.12028  -2.86831   1.19655 
 C                     1.51197  -2.70515   1.55104 
 N                     2.40589  -2.12413   0.69026 
 H                    -0.59687  -3.26833   1.9083 
 C                     3.08657  -1.06508  -1.2992 
 C                     4.43289  -1.51662  -1.31201 
 C                     5.40238  -0.73631  -1.95076 
 C                     3.75322   0.89809  -2.60619 
 C                     5.07165   0.46291  -2.58082 
 H                     6.4325   -1.09403  -1.97857 
 H                     5.84786   1.05657  -3.06605 
 H                     3.44941   1.83045  -3.08205 
 C                     2.78938   0.12671  -1.97373 
 C                     4.86453  -2.81885  -0.72465 
 C                     6.05155  -2.89425   0.01641 
 C                     4.1446   -4.00159  -0.95184 
 C                     6.49035  -4.10995   0.54425 
 H                     6.63396  -1.98832   0.18799 
 C                     4.58504  -5.21598  -0.43284 
 H                     3.23635  -3.97266  -1.55729 
 C                     5.75774  -5.27493   0.32439 
 H                     7.41424  -4.14396   1.12465 
 H                     4.01383  -6.12505  -0.62982 
 H                     6.10145  -6.22703   0.73257 
 F                     1.53599   0.57833  -1.99425 
 C                    -1.7187   -2.74136  -0.4736 
 H                    -2.06634  -1.88722  -1.07232 
 H                    -1.79292  -3.6483   -1.09519 
 H                    -2.37359  -2.86296   0.39895 
 C                     1.24133  -3.6839    3.80772 
 C                     3.4422   -3.00879   3.03196 
 C                     1.83968  -5.04069   4.16544 
 H                     0.18591  -3.78799   3.54899 
 H                     1.32736  -3.00232   4.66779 
 C                     3.93813  -4.39651   3.42162 
 H                     3.99136  -2.62724   2.16582 
 H                     3.55055  -2.31655   3.88131 
 H                     1.70062  -5.7352    3.31501 
 H                     1.31473  -5.44763   5.03913 
 H                     3.87605  -5.06321   2.54091 
 H                     4.98795  -4.33132   3.73652 
 N                     2.00914  -3.09051   2.71083 
 O                     3.19826  -4.92493   4.49247 
 I                     0.71767  -3.01398  -2.87116 
 H                     0.23487  -0.95444  -1.31789 
 C                    -2.72217   6.80816  -1.16748 
 C                    -2.76367   5.54522  -0.62654 
 C                    -1.5635    4.82542  -0.36798 
 C                    -0.3223    5.43496  -0.70694 
 C                    -0.30877   6.74836  -1.2546 
 C                    -1.48312   7.42249  -1.47736 
 H                    -3.65321   7.34137  -1.36591 
 H                    -3.72618   5.08323  -0.40579 
 C                    -1.56439   3.50274   0.18753 
 C                     0.88003   4.72069  -0.50043 
 H                     0.65394   7.20101  -1.50008 
 H                    -1.46831   8.42756  -1.9018 
 C                     0.87618   3.42773  -0.01042 
 C                    -0.37267   2.80955   0.32229 
 H                     1.83315   5.1974   -0.73676 
 C                    -2.87827   2.90143   0.60101 
 C                    -3.41545   1.79869  -0.03772 
 C                    -3.54508   3.4601    1.74353 
 C                    -4.61972   1.18467   0.43504 
 C                    -4.78238   2.89409   2.16619 
 C                    -3.01046   4.54619   2.49327 
 C                    -5.29171   1.75643   1.499 
 C                    -5.4681    3.45035   3.2824 
 C                    -3.68962   5.05713   3.57367 
 H                    -2.04738   4.97263   2.21339 
 H                    -6.21833   1.30041   1.85209 
 C                    -4.93704   4.51321   3.96859 
 H                    -6.41865   3.00573   3.58365 
 H                    -3.26072   5.8879    4.13617 
 H                    -5.46505   4.93448   4.82548 
 S                    -0.49012   1.06449   0.72934 
 O                    -1.27681   0.97414   1.92334 
 O                     0.8201    0.48186   0.80201 
 S                    -2.41546   1.07084  -1.33408 
 O                    -2.02146   2.1494   -2.18889 
 O                    -3.12061  -0.00225  -1.96847 
 N                    -1.2042    0.44213  -0.53434 
 C                     2.14884   2.803     0.19306 
 C                     3.26516   2.36856   0.38411 
 C                    -5.13961  -0.03691  -0.10288 
 C                    -5.58501  -1.09697  -0.48918 
 C                    -5.96319  -2.35523  -1.058 
 C                    -7.03655  -3.12367  -0.56724 
 C                    -5.21853  -2.84236  -2.14458 
 C                    -7.35288  -4.34697  -1.15071 
 C                    -5.53961  -4.06737  -2.72254 
 H                    -4.39243  -2.23395  -2.51755 
 C                    -6.60441  -4.82063  -2.22848 
 H                    -8.18707  -4.93052  -0.76085 
 H                    -4.95475  -4.43439  -3.56738 
 H                    -6.85739  -5.77962  -2.68226 
 C                     4.51767   1.75398   0.69954 
 C                     4.5099    0.56141   1.4414 
 C                     5.75302   2.30915   0.31291 
 C                     5.70829  -0.04354   1.80752 
 H                     3.54691   0.12873   1.71996 
 C                     6.94757   1.68777   0.66616 
 C                     6.92687   0.5144    1.41975 
 H                     5.6906   -0.96197   2.3973 
 H                     7.89642   2.12854   0.36026 
 H                     7.86628   0.03799   1.70426 
 C                     5.77392   3.58972  -0.4805 
 F                     7.01927   3.98461  -0.75483 
 F                     5.17962   4.59295   0.1733 
 F                     5.1384    3.46897  -1.65225 
 C                    -7.83861  -2.6085    0.59874 
 F                    -8.81797  -3.44849   0.9411 
 F                    -8.4093   -1.42974   0.3308 
 F                    -7.07974  -2.42893   1.68533 
 
 ITRead=  0  0  0  0  0  0  0  0  0  0  0  0  0  0  0  0  0  0  0  0
 ITRead=  0  0  0  0  0  0  0  0  0  0  0  0  0  0  0  0  0  0  0  0
 ITRead=  0  0  0  0  0  0  0  0  0  0  0  0  0  0  0  0  0  0  0  0
 ITRead=  0  0  0  0  0  0  0  0  0  0  0  0  0  0  0  0  0  0  0  0
 ITRead=  0  0  0  0  0  0  0  0  0  0  0  0  0  0  0  0  0  0  0  0
 ITRead=  0  0  0  0  0  0  0  0  0  0  0  0  0  0  0  0  0
 MicOpt= -1 -1 -1 -1 -1 -1 -1 -1 -1 -1 -1 -1 -1 -1 -1 -1 -1 -1 -1 -1
 MicOpt= -1 -1 -1 -1 -1 -1 -1 -1 -1 -1 -1 -1 -1 -1 -1 -1 -1 -1 -1 -1
 MicOpt= -1 -1 -1 -1 -1 -1 -1 -1 -1 -1 -1 -1 -1 -1 -1 -1 -1 -1 -1 -1
 MicOpt= -1 -1 -1 -1 -1 -1 -1 -1 -1 -1 -1 -1 -1 -1 -1 -1 -1 -1 -1 -1
 MicOpt= -1 -1 -1 -1 -1 -1 -1 -1 -1 -1 -1 -1 -1 -1 -1 -1 -1 -1 -1 -1
 MicOpt= -1 -1 -1 -1 -1 -1 -1 -1 -1 -1 -1 -1 -1 -1 -1 -1 -1
 NAtoms=    117 NQM=      117 NQMF=       0 NMMI=      0 NMMIF=      0
                NMic=       0 NMicF=      0.
                    Isotopes and Nuclear Properties:
 (Nuclear quadrupole moments (NQMom) in fm**2, nuclear magnetic moments (NMagM)
  in nuclear magnetons)

  Atom         1           2           3           4           5           6           7           8           9          10
 IAtWgt=          12          12          12          12          12          14           1          12          12          12
 AtmWgt=  12.0000000  12.0000000  12.0000000  12.0000000  12.0000000  14.0030740   1.0078250  12.0000000  12.0000000  12.0000000
 NucSpn=           0           0           0           0           0           2           1           0           0           0
 AtZEff=   0.0000000   0.0000000   0.0000000   0.0000000   0.0000000   0.0000000   0.0000000   0.0000000   0.0000000   0.0000000
 NQMom=    0.0000000   0.0000000   0.0000000   0.0000000   0.0000000   2.0440000   0.0000000   0.0000000   0.0000000   0.0000000
 NMagM=    0.0000000   0.0000000   0.0000000   0.0000000   0.0000000   0.4037610   2.7928460   0.0000000   0.0000000   0.0000000
 AtZNuc=   6.0000000   6.0000000   6.0000000   6.0000000   6.0000000   7.0000000   1.0000000   6.0000000   6.0000000   6.0000000

  Atom        11          12          13          14          15          16          17          18          19          20
 IAtWgt=          12          12           1           1           1          12          12          12          12          12
 AtmWgt=  12.0000000  12.0000000   1.0078250   1.0078250   1.0078250  12.0000000  12.0000000  12.0000000  12.0000000  12.0000000
 NucSpn=           0           0           1           1           1           0           0           0           0           0
 AtZEff=   0.0000000   0.0000000   0.0000000   0.0000000   0.0000000   0.0000000   0.0000000   0.0000000   0.0000000   0.0000000
 NQMom=    0.0000000   0.0000000   0.0000000   0.0000000   0.0000000   0.0000000   0.0000000   0.0000000   0.0000000   0.0000000
 NMagM=    0.0000000   0.0000000   2.7928460   2.7928460   2.7928460   0.0000000   0.0000000   0.0000000   0.0000000   0.0000000
 AtZNuc=   6.0000000   6.0000000   1.0000000   1.0000000   1.0000000   6.0000000   6.0000000   6.0000000   6.0000000   6.0000000

  Atom        21          22          23          24          25          26          27          28          29          30
 IAtWgt=           1          12           1          12           1           1           1          19          12           1
 AtmWgt=   1.0078250  12.0000000   1.0078250  12.0000000   1.0078250   1.0078250   1.0078250  18.9984032  12.0000000   1.0078250
 NucSpn=           1           0           1           0           1           1           1           1           0           1
 AtZEff=   0.0000000   0.0000000   0.0000000   0.0000000   0.0000000   0.0000000   0.0000000   0.0000000   0.0000000   0.0000000
 NQMom=    0.0000000   0.0000000   0.0000000   0.0000000   0.0000000   0.0000000   0.0000000   0.0000000   0.0000000   0.0000000
 NMagM=    2.7928460   0.0000000   2.7928460   0.0000000   2.7928460   2.7928460   2.7928460   2.6288670   0.0000000   2.7928460
 AtZNuc=   1.0000000   6.0000000   1.0000000   6.0000000   1.0000000   1.0000000   1.0000000   9.0000000   6.0000000   1.0000000

  Atom        31          32          33          34          35          36          37          38          39          40
 IAtWgt=           1           1          12          12          12           1           1          12           1           1
 AtmWgt=   1.0078250   1.0078250  12.0000000  12.0000000  12.0000000   1.0078250   1.0078250  12.0000000   1.0078250   1.0078250
 NucSpn=           1           1           0           0           0           1           1           0           1           1
 AtZEff=   0.0000000   0.0000000   0.0000000   0.0000000   0.0000000   0.0000000   0.0000000   0.0000000   0.0000000   0.0000000
 NQMom=    0.0000000   0.0000000   0.0000000   0.0000000   0.0000000   0.0000000   0.0000000   0.0000000   0.0000000   0.0000000
 NMagM=    2.7928460   2.7928460   0.0000000   0.0000000   0.0000000   2.7928460   2.7928460   0.0000000   2.7928460   2.7928460
 AtZNuc=   1.0000000   1.0000000   6.0000000   6.0000000   6.0000000   1.0000000   1.0000000   6.0000000   1.0000000   1.0000000

  Atom        41          42          43          44          45          46          47          48          49          50
 IAtWgt=           1           1           1           1          14          16         127           1          12          12
 AtmWgt=   1.0078250   1.0078250   1.0078250   1.0078250  14.0030740  15.9949146 126.9004000   1.0078250  12.0000000  12.0000000
 NucSpn=           1           1           1           1           2           0           5           1           0           0
 AtZEff=   0.0000000   0.0000000   0.0000000   0.0000000   0.0000000   0.0000000   0.0000000   0.0000000   0.0000000   0.0000000
 NQMom=    0.0000000   0.0000000   0.0000000   0.0000000   2.0440000   0.0000000 -71.0000000   0.0000000   0.0000000   0.0000000
 NMagM=    2.7928460   2.7928460   2.7928460   2.7928460   0.4037610   0.0000000   2.8132800   2.7928460   0.0000000   0.0000000
 AtZNuc=   1.0000000   1.0000000   1.0000000   1.0000000   7.0000000   8.0000000  53.0000000   1.0000000   6.0000000   6.0000000

  Atom        51          52          53          54          55          56          57          58          59          60
 IAtWgt=          12          12          12          12           1           1          12          12           1           1
 AtmWgt=  12.0000000  12.0000000  12.0000000  12.0000000   1.0078250   1.0078250  12.0000000  12.0000000   1.0078250   1.0078250
 NucSpn=           0           0           0           0           1           1           0           0           1           1
 AtZEff=   0.0000000   0.0000000   0.0000000   0.0000000   0.0000000   0.0000000   0.0000000   0.0000000   0.0000000   0.0000000
 NQMom=    0.0000000   0.0000000   0.0000000   0.0000000   0.0000000   0.0000000   0.0000000   0.0000000   0.0000000   0.0000000
 NMagM=    0.0000000   0.0000000   0.0000000   0.0000000   2.7928460   2.7928460   0.0000000   0.0000000   2.7928460   2.7928460
 AtZNuc=   6.0000000   6.0000000   6.0000000   6.0000000   1.0000000   1.0000000   6.0000000   6.0000000   1.0000000   1.0000000

  Atom        61          62          63          64          65          66          67          68          69          70
 IAtWgt=          12          12           1          12          12          12          12          12          12          12
 AtmWgt=  12.0000000  12.0000000   1.0078250  12.0000000  12.0000000  12.0000000  12.0000000  12.0000000  12.0000000  12.0000000
 NucSpn=           0           0           1           0           0           0           0           0           0           0
 AtZEff=   0.0000000   0.0000000   0.0000000   0.0000000   0.0000000   0.0000000   0.0000000   0.0000000   0.0000000   0.0000000
 NQMom=    0.0000000   0.0000000   0.0000000   0.0000000   0.0000000   0.0000000   0.0000000   0.0000000   0.0000000   0.0000000
 NMagM=    0.0000000   0.0000000   2.7928460   0.0000000   0.0000000   0.0000000   0.0000000   0.0000000   0.0000000   0.0000000
 AtZNuc=   6.0000000   6.0000000   1.0000000   6.0000000   6.0000000   6.0000000   6.0000000   6.0000000   6.0000000   6.0000000

  Atom        71          72          73          74          75          76          77          78          79          80
 IAtWgt=          12          12           1           1          12           1           1           1          32          16
 AtmWgt=  12.0000000  12.0000000   1.0078250   1.0078250  12.0000000   1.0078250   1.0078250   1.0078250  31.9720718  15.9949146
 NucSpn=           0           0           1           1           0           1           1           1           0           0
 AtZEff=   0.0000000   0.0000000   0.0000000   0.0000000   0.0000000   0.0000000   0.0000000   0.0000000   0.0000000   0.0000000
 NQMom=    0.0000000   0.0000000   0.0000000   0.0000000   0.0000000   0.0000000   0.0000000   0.0000000   0.0000000   0.0000000
 NMagM=    0.0000000   0.0000000   2.7928460   2.7928460   0.0000000   2.7928460   2.7928460   2.7928460   0.0000000   0.0000000
 AtZNuc=   6.0000000   6.0000000   1.0000000   1.0000000   6.0000000   1.0000000   1.0000000   1.0000000  16.0000000   8.0000000

  Atom        81          82          83          84          85          86          87          88          89          90
 IAtWgt=          16          32          16          16          14          12          12          12          12          12
 AtmWgt=  15.9949146  31.9720718  15.9949146  15.9949146  14.0030740  12.0000000  12.0000000  12.0000000  12.0000000  12.0000000
 NucSpn=           0           0           0           0           2           0           0           0           0           0
 AtZEff=   0.0000000   0.0000000   0.0000000   0.0000000   0.0000000   0.0000000   0.0000000   0.0000000   0.0000000   0.0000000
 NQMom=    0.0000000   0.0000000   0.0000000   0.0000000   2.0440000   0.0000000   0.0000000   0.0000000   0.0000000   0.0000000
 NMagM=    0.0000000   0.0000000   0.0000000   0.0000000   0.4037610   0.0000000   0.0000000   0.0000000   0.0000000   0.0000000
 AtZNuc=   8.0000000  16.0000000   8.0000000   8.0000000   7.0000000   6.0000000   6.0000000   6.0000000   6.0000000   6.0000000

  Atom        91          92          93          94          95          96          97          98          99         100
 IAtWgt=          12          12          12          12           1          12           1           1           1          12
 AtmWgt=  12.0000000  12.0000000  12.0000000  12.0000000   1.0078250  12.0000000   1.0078250   1.0078250   1.0078250  12.0000000
 NucSpn=           0           0           0           0           1           0           1           1           1           0
 AtZEff=   0.0000000   0.0000000   0.0000000   0.0000000   0.0000000   0.0000000   0.0000000   0.0000000   0.0000000   0.0000000
 NQMom=    0.0000000   0.0000000   0.0000000   0.0000000   0.0000000   0.0000000   0.0000000   0.0000000   0.0000000   0.0000000
 NMagM=    0.0000000   0.0000000   0.0000000   0.0000000   2.7928460   0.0000000   2.7928460   2.7928460   2.7928460   0.0000000
 AtZNuc=   6.0000000   6.0000000   6.0000000   6.0000000   1.0000000   6.0000000   1.0000000   1.0000000   1.0000000   6.0000000

  Atom       101         102         103         104         105         106         107         108         109         110
 IAtWgt=          12          12          12           1          12          12           1           1           1          12
 AtmWgt=  12.0000000  12.0000000  12.0000000   1.0078250  12.0000000  12.0000000   1.0078250   1.0078250   1.0078250  12.0000000
 NucSpn=           0           0           0           1           0           0           1           1           1           0
 AtZEff=   0.0000000   0.0000000   0.0000000   0.0000000   0.0000000   0.0000000   0.0000000   0.0000000   0.0000000   0.0000000
 NQMom=    0.0000000   0.0000000   0.0000000   0.0000000   0.0000000   0.0000000   0.0000000   0.0000000   0.0000000   0.0000000
 NMagM=    0.0000000   0.0000000   0.0000000   2.7928460   0.0000000   0.0000000   2.7928460   2.7928460   2.7928460   0.0000000
 AtZNuc=   6.0000000   6.0000000   6.0000000   1.0000000   6.0000000   6.0000000   1.0000000   1.0000000   1.0000000   6.0000000

  Atom       111         112         113         114         115         116         117
 IAtWgt=          19          19          19          12          19          19          19
 AtmWgt=  18.9984032  18.9984032  18.9984032  12.0000000  18.9984032  18.9984032  18.9984032
 NucSpn=           1           1           1           0           1           1           1
 AtZEff=   0.0000000   0.0000000   0.0000000   0.0000000   0.0000000   0.0000000   0.0000000
 NQMom=    0.0000000   0.0000000   0.0000000   0.0000000   0.0000000   0.0000000   0.0000000
 NMagM=    2.6288670   2.6288670   2.6288670   0.0000000   2.6288670   2.6288670   2.6288670
 AtZNuc=   9.0000000   9.0000000   9.0000000   6.0000000   9.0000000   9.0000000   9.0000000
 Leave Link  101 at Wed Jun 12 02:59:15 2024, MaxMem=  8589934592 cpu:               2.3 elap:               0.1
 (Enter /opt/packages/gaussian/g16RevC.01/g16/l202.exe)
 Symmetry turned off by external request.
 Stoichiometry    C60H39F7IN3O5S2
 Framework group  C1[X(C60H39F7IN3O5S2)]
 Deg. of freedom   345
 Full point group                 C1      NOp   1
                          Input orientation:                          
 ---------------------------------------------------------------------
 Center     Atomic      Atomic             Coordinates (Angstroms)
 Number     Number       Type             X           Y           Z
 ---------------------------------------------------------------------
      1          6           0        2.041582   -1.737181   -0.481651
      2          6           0        0.653415   -1.923286   -1.002919
      3          6           0       -0.301811   -2.539558   -0.046047
      4          6           0        0.120279   -2.868306    1.196546
      5          6           0        1.511973   -2.705147    1.551040
      6          7           0        2.405887   -2.124128    0.690264
      7          1           0       -0.596869   -3.268328    1.908299
      8          6           0        3.086573   -1.065076   -1.299202
      9          6           0        4.432891   -1.516621   -1.312013
     10          6           0        5.402384   -0.736314   -1.950763
     11          6           0        3.753215    0.898090   -2.606190
     12          6           0        5.071647    0.462913   -2.580824
     13          1           0        6.432505   -1.094033   -1.978574
     14          1           0        5.847864    1.056573   -3.066051
     15          1           0        3.449408    1.830447   -3.082047
     16          6           0        2.789378    0.126707   -1.973725
     17          6           0        4.864526   -2.818845   -0.724653
     18          6           0        6.051549   -2.894252    0.016409
     19          6           0        4.144598   -4.001587   -0.951841
     20          6           0        6.490351   -4.109951    0.544247
     21          1           0        6.633959   -1.988322    0.187993
     22          6           0        4.585035   -5.215979   -0.432838
     23          1           0        3.236348   -3.972659   -1.557287
     24          6           0        5.757736   -5.274932    0.324387
     25          1           0        7.414237   -4.143956    1.124649
     26          1           0        4.013834   -6.125055   -0.629823
     27          1           0        6.101455   -6.227026    0.732571
     28          9           0        1.535985    0.578331   -1.994246
     29          6           0       -1.718698   -2.741362   -0.473600
     30          1           0       -2.066336   -1.887223   -1.072317
     31          1           0       -1.792915   -3.648298   -1.095186
     32          1           0       -2.373585   -2.862956    0.398947
     33          6           0        1.241328   -3.683898    3.807723
     34          6           0        3.442203   -3.008792    3.031959
     35          6           0        1.839681   -5.040687    4.165441
     36          1           0        0.185905   -3.787992    3.548988
     37          1           0        1.327361   -3.002316    4.667791
     38          6           0        3.938127   -4.396508    3.421617
     39          1           0        3.991363   -2.627236    2.165824
     40          1           0        3.550549   -2.316552    3.881311
     41          1           0        1.700624   -5.735204    3.315008
     42          1           0        1.314734   -5.447626    5.039130
     43          1           0        3.876045   -5.063208    2.540913
     44          1           0        4.987947   -4.331321    3.736522
     45          7           0        2.009136   -3.090513    2.710829
     46          8           0        3.198258   -4.924930    4.492472
     47         53           0        0.717671   -3.013984   -2.871164
     48          1           0        0.234871   -0.954444   -1.317893
     49          6           0       -2.722165    6.808163   -1.167484
     50          6           0       -2.763666    5.545216   -0.626536
     51          6           0       -1.563497    4.825417   -0.367977
     52          6           0       -0.322302    5.434958   -0.706938
     53          6           0       -0.308765    6.748360   -1.254601
     54          6           0       -1.483123    7.422486   -1.477357
     55          1           0       -3.653214    7.341368   -1.365906
     56          1           0       -3.726184    5.083226   -0.405787
     57          6           0       -1.564389    3.502735    0.187531
     58          6           0        0.880031    4.720691   -0.500425
     59          1           0        0.653935    7.201009   -1.500084
     60          1           0       -1.468313    8.427556   -1.901800
     61          6           0        0.876177    3.427732   -0.010424
     62          6           0       -0.372673    2.809553    0.322287
     63          1           0        1.833151    5.197398   -0.736760
     64          6           0       -2.878268    2.901429    0.601014
     65          6           0       -3.415454    1.798690   -0.037724
     66          6           0       -3.545081    3.460104    1.743527
     67          6           0       -4.619722    1.184674    0.435038
     68          6           0       -4.782381    2.894090    2.166190
     69          6           0       -3.010465    4.546190    2.493272
     70          6           0       -5.291706    1.756432    1.498997
     71          6           0       -5.468098    3.450352    3.282401
     72          6           0       -3.689617    5.057125    3.573673
     73          1           0       -2.047376    4.972627    2.213388
     74          1           0       -6.218332    1.300413    1.852091
     75          6           0       -4.937040    4.513211    3.968585
     76          1           0       -6.418650    3.005729    3.583653
     77          1           0       -3.260718    5.887899    4.136172
     78          1           0       -5.465050    4.934481    4.825483
     79         16           0       -0.490115    1.064487    0.729335
     80          8           0       -1.276811    0.974144    1.923336
     81          8           0        0.820097    0.481858    0.802007
     82         16           0       -2.415456    1.070838   -1.334084
     83          8           0       -2.021463    2.149403   -2.188892
     84          8           0       -3.120612   -0.002249   -1.968467
     85          7           0       -1.204200    0.442133   -0.534344
     86          6           0        2.148840    2.803004    0.193063
     87          6           0        3.265157    2.368560    0.384114
     88          6           0       -5.139608   -0.036908   -0.102879
     89          6           0       -5.585012   -1.096969   -0.489175
     90          6           0       -5.963187   -2.355228   -1.057999
     91          6           0       -7.036553   -3.123671   -0.567242
     92          6           0       -5.218525   -2.842357   -2.144582
     93          6           0       -7.352875   -4.346966   -1.150709
     94          6           0       -5.539614   -4.067369   -2.722538
     95          1           0       -4.392428   -2.233954   -2.517553
     96          6           0       -6.604408   -4.820626   -2.228481
     97          1           0       -8.187066   -4.930520   -0.760853
     98          1           0       -4.954754   -4.434388   -3.567378
     99          1           0       -6.857392   -5.779621   -2.682262
    100          6           0        4.517672    1.753975    0.699542
    101          6           0        4.509898    0.561411    1.441403
    102          6           0        5.753023    2.309152    0.312905
    103          6           0        5.708293   -0.043536    1.807524
    104          1           0        3.546912    0.128725    1.719957
    105          6           0        6.947567    1.687768    0.666163
    106          6           0        6.926873    0.514396    1.419747
    107          1           0        5.690604   -0.961966    2.397301
    108          1           0        7.896422    2.128541    0.360261
    109          1           0        7.866275    0.037994    1.704264
    110          6           0        5.773915    3.589719   -0.480495
    111          9           0        7.019271    3.984614   -0.754828
    112          9           0        5.179618    4.592946    0.173303
    113          9           0        5.138397    3.468973   -1.652249
    114          6           0       -7.838612   -2.608496    0.598739
    115          9           0       -8.817967   -3.448486    0.941100
    116          9           0       -8.409295   -1.429744    0.330804
    117          9           0       -7.079739   -2.428932    1.685331
 ---------------------------------------------------------------------
 Rotational constants (GHZ):           0.0294945           0.0198851           0.0148917
 Leave Link  202 at Wed Jun 12 02:59:15 2024, MaxMem=  8589934592 cpu:               0.4 elap:               0.0
 (Enter /opt/packages/gaussian/g16RevC.01/g16/l301.exe)
 Standard basis: def2TZVPP (5D, 7F)
 Ernie: Thresh=  0.10000D-02 Tol=  0.10000D-05 Strict=F.
  3005 basis functions,  4735 primitive gaussians,  3440 cartesian basis functions
   290 alpha electrons      290 beta electrons
       nuclear repulsion energy     15273.4801768998 Hartrees.
 IExCor=  402 DFT=T Ex+Corr=B3LYP ExCW=0 ScaHFX=  0.200000
 ScaDFX=  0.800000  0.720000  1.000000  0.810000 ScalE2=  1.000000  1.000000
 IRadAn=      5 IRanWt=     -1 IRanGd=            0 ICorTp=0 IEmpDi=141
 NAtoms=  117 NActive=  117 NUniq=  117 SFac= 1.00D+00 NAtFMM=   60 NAOKFM=T Big=T
 Integral buffers will be    131072 words long.
 Raffenetti 2 integral format.
 Two-electron integral symmetry is turned off.
 R6Disp:  Grimme-D3(BJ) Dispersion energy=       -0.3813229576 Hartrees.
 Nuclear repulsion after empirical dispersion term =    15273.0988539422 Hartrees.
 ------------------------------------------------------------------------------
 Polarizable Continuum Model (PCM)
 =================================
 Model                : PCM.
 Atomic radii         : SMD-Coulomb.
 Polarization charges : Total charges.
 Charge compensation  : None.
 Solution method      : On-the-fly selection.
 Cavity type          : VdW (van der Waals Surface) (Alpha=1.000).
 Cavity algorithm     : GePol (No added spheres)
                        Default sphere list used, NSphG=  117.
                        Lebedev-Laikov grids with approx.  5.0 points / Ang**2.
                        Smoothing algorithm: York/Karplus (Gamma=1.0000).
                        Polarization charges: spherical gaussians, with
                                              point-specific exponents (IZeta= 3).
                        Self-potential: point-specific (ISelfS= 7).
                        Self-field    : sphere-specific E.n sum rule (ISelfD= 2).
 Solvent              : PropylEthanoate, Eps=   5.520500 Eps(inf)=   1.916010
 ------------------------------------------------------------------------------
 GePol: Number of generator spheres                  =     117
 GePol: Total number of spheres                      =     117
 GePol: Number of exposed spheres                    =     117 (100.00%)
 GePol: Number of points                             =    8513
 GePol: Average weight of points                     =       0.11
 GePol: Minimum weight of points                     =   0.47D-09
 GePol: Maximum weight of points                     =    0.21501
 GePol: Number of points with low weight             =     554
 GePol: Fraction of low-weight points (<1% of avg)   =       6.51%
 GePol: Cavity surface area                          =    955.070 Ang**2
 GePol: Cavity volume                                =   1078.141 Ang**3
 ------------------------------------------------------------------------------
 Atomic radii for non-electrostatic terms: SMD-CDS.
 ------------------------------------------------------------------------------
 PCM non-electrostatic energy =        -0.0222694953 Hartrees.
 Nuclear repulsion after PCM non-electrostatic terms =    15273.0765844469 Hartrees.
 Leave Link  301 at Wed Jun 12 02:59:15 2024, MaxMem=  8589934592 cpu:               5.3 elap:               0.2
 (Enter /opt/packages/gaussian/g16RevC.01/g16/l302.exe)
 NPDir=0 NMtPBC=     1 NCelOv=     1 NCel=       1 NClECP=     1 NCelD=      1
         NCelK=      1 NCelE2=     1 NClLst=     1 CellRange=     0.0.
 One-electron integrals computed using PRISM.
   1 Symmetry operations used in ECPInt.
 ECPInt:  NShTT=  608856 NPrTT= 1802125 LenC2=  371090 LenP2D=  701144.
 LDataN:  DoStor=T MaxTD1= 7 Len=  274
 Number of processors reduced to  17 by ecpmxn.
 NBasis=  3005 RedAO= T EigKep=  2.08D-06  NBF=  3005
 NBsUse=  3005 1.00D-06 EigRej= -1.00D+00 NBFU=  3005
 Precomputing XC quadrature grid using
 IXCGrd= 4 IRadAn=           5 IRanWt=          -1 IRanGd=           0 AccXCQ= 0.00D+00.
 Defaulting to unpruned grid for atomic number  53.
 Generated NRdTot=       0 NPtTot=           0 NUsed=           0 NTot=          32
 NSgBfM=  2900  2896  2900  2900  2900 MxSgAt=   117 MxSgA2=   117.
 Leave Link  302 at Wed Jun 12 02:59:38 2024, MaxMem=  8589934592 cpu:             685.1 elap:              22.1
 (Enter /opt/packages/gaussian/g16RevC.01/g16/l303.exe)
 DipDrv:  MaxL=1.
 Leave Link  303 at Wed Jun 12 02:59:39 2024, MaxMem=  8589934592 cpu:              30.4 elap:               1.2
 (Enter /opt/packages/gaussian/g16RevC.01/g16/l401.exe)
 ExpMin= 7.49D-02 ExpMax= 6.07D+04 ExpMxC= 2.07D+03 IAcc=3 IRadAn=         5 AccDes= 0.00D+00
 Harris functional with IExCor=  402 and IRadAn=       5 diagonalized for initial guess.
 HarFok:  IExCor=  402 AccDes= 0.00D+00 IRadAn=         5 IDoV= 1 UseB2=F ITyADJ=14
 ICtDFT=  3500011 ScaDFX=  1.000000  1.000000  1.000000  1.000000
 Defaulting to unpruned grid for atomic number  53.
 FoFCou: FMM=F IPFlag=           0 FMFlag=      100000 FMFlg1=        2001
         NFxFlg=           0 DoJE=T BraDBF=F KetDBF=T FulRan=T
         wScrn=  0.000000 ICntrl=       500 IOpCl=  0 I1Cent=   200000004 NGrid=           0
         NMat0=    1 NMatS0=      1 NMatT0=    0 NMatD0=    1 NMtDS0=    0 NMtDT0=    0
 Symmetry not used in FoFCou.
 Harris En= -4645.02114960083    
 JPrj=0 DoOrth=F DoCkMO=F.
 Leave Link  401 at Wed Jun 12 03:00:05 2024, MaxMem=  8589934592 cpu:             821.1 elap:              25.8
 (Enter /opt/packages/gaussian/g16RevC.01/g16/l502.exe)
 Two-electron integral symmetry not used.
 Closed shell SCF:
 Using DIIS extrapolation, IDIIS=  1040.
 NGot=  8589934592 LenX=  8566133628 LenY=  8554296588
 Requested convergence on RMS density matrix=1.00D-08 within 128 cycles.
 Requested convergence on MAX density matrix=1.00D-06.
 Requested convergence on             energy=1.00D-06.
 No special actions if energy rises.
 Fock matrices will be formed incrementally for  20 cycles.

 Cycle   1  Pass 1  IDiag  1:
 FoFJK:  IHMeth= 1 ICntrl=       0 DoSepK=F KAlg= 0 I1Cent=           0 FoldK=F
 IRaf= 560000000 NMat=       1 IRICut=       1 DoRegI=T DoRafI=F ISym2E= 0 IDoP0=0 IntGTp=1.
 FoFCou: FMM=T IPFlag=           0 FMFlag=      100000 FMFlg1=        2001
         NFxFlg=           0 DoJE=F BraDBF=F KetDBF=F FulRan=T
         wScrn=  0.000000 ICntrl=         0 IOpCl=  0 I1Cent=           0 NGrid=           0
         NMat0=    1 NMatS0=      1 NMatT0=    0 NMatD0=    1 NMtDS0=    0 NMtDT0=    0
 Symmetry not used in FoFCou.
 FMM levels:  10  Number of levels for PrismC:   9
 Defaulting to unpruned grid for atomic number  53.
 Defaulting to unpruned grid for atomic number  53.
 Defaulting to unpruned grid for atomic number  53.
 Defaulting to unpruned grid for atomic number  53.
 Defaulting to unpruned grid for atomic number  53.
 Defaulting to unpruned grid for atomic number  53.
 Defaulting to unpruned grid for atomic number  53.
 Defaulting to unpruned grid for atomic number  53.
 Defaulting to unpruned grid for atomic number  53.
 Defaulting to unpruned grid for atomic number  53.
 Defaulting to unpruned grid for atomic number  53.
 Defaulting to unpruned grid for atomic number  53.
 Defaulting to unpruned grid for atomic number  53.
 Defaulting to unpruned grid for atomic number  53.
 Defaulting to unpruned grid for atomic number  53.
 Defaulting to unpruned grid for atomic number  53.
 Defaulting to unpruned grid for atomic number  53.
 Defaulting to unpruned grid for atomic number  53.
 Defaulting to unpruned grid for atomic number  53.
 Defaulting to unpruned grid for atomic number  53.
 Defaulting to unpruned grid for atomic number  53.
 Defaulting to unpruned grid for atomic number  53.
 Defaulting to unpruned grid for atomic number  53.
 Defaulting to unpruned grid for atomic number  53.
 Defaulting to unpruned grid for atomic number  53.
 Defaulting to unpruned grid for atomic number  53.
 Defaulting to unpruned grid for atomic number  53.
 Defaulting to unpruned grid for atomic number  53.
 Defaulting to unpruned grid for atomic number  53.
 Defaulting to unpruned grid for atomic number  53.
 Defaulting to unpruned grid for atomic number  53.
 Defaulting to unpruned grid for atomic number  53.
 Inv3:  Mode=1 IEnd=   217413507.
 Iteration    1 A*A^-1 deviation from unit magnitude is 4.44D-15 for   3590.
 Iteration    1 A*A^-1 deviation from orthogonality  is 2.63D-15 for   3386   3233.
 Iteration    1 A^-1*A deviation from unit magnitude is 4.22D-15 for   3590.
 Iteration    1 A^-1*A deviation from orthogonality  is 6.86D-14 for   5767   5736.
 E= -4643.11221606393    
 DIIS: error= 1.24D-02 at cycle   1 NSaved=   1.
 NSaved= 1 IEnMin= 1 EnMin= -4643.11221606393     IErMin= 1 ErrMin= 1.24D-02
 ErrMax= 1.24D-02  0.00D+00 EMaxC= 1.00D-01 BMatC= 2.40D+00 BMatP= 2.40D+00
 IDIUse=3 WtCom= 8.76D-01 WtEn= 1.24D-01
 Coeff-Com:  0.100D+01
 Coeff-En:   0.100D+01
 Coeff:      0.100D+01
 Gap=     0.329 Goal=   None    Shift=    0.000
 GapD=    0.329 DampG=1.000 DampE=0.500 DampFc=0.5000 IDamp=-1.
 Damping current iteration by 5.00D-01
 RMSDP=3.36D-03 MaxDP=1.86D+00              OVMax= 2.40D-01

 Cycle   2  Pass 1  IDiag  1:
 RMSU=  1.65D-03    CP:  1.07D+00
 E= -4643.69004555109     Delta-E=       -0.577829487160 Rises=F Damp=T
 DIIS: error= 5.12D-03 at cycle   2 NSaved=   2.
 NSaved= 2 IEnMin= 2 EnMin= -4643.69004555109     IErMin= 2 ErrMin= 5.12D-03
 ErrMax= 5.12D-03  0.00D+00 EMaxC= 1.00D-01 BMatC= 3.28D-01 BMatP= 2.40D+00
 IDIUse=3 WtCom= 9.49D-01 WtEn= 5.12D-02
 Coeff-Com:  0.177D+00 0.823D+00
 Coeff-En:   0.306D+00 0.694D+00
 Coeff:      0.184D+00 0.816D+00
 Gap=     0.080 Goal=   None    Shift=    0.000
 RMSDP=1.26D-03 MaxDP=4.90D-01 DE=-5.78D-01 OVMax= 2.35D-01

 Cycle   3  Pass 1  IDiag  1:
 RMSU=  1.07D-03    CP:  1.05D+00  5.93D-01
 E= -4644.70261034660     Delta-E=       -1.012564795512 Rises=F Damp=F
 DIIS: error= 6.86D-03 at cycle   3 NSaved=   3.
 NSaved= 3 IEnMin= 3 EnMin= -4644.70261034660     IErMin= 2 ErrMin= 5.12D-03
 ErrMax= 6.86D-03  0.00D+00 EMaxC= 1.00D-01 BMatC= 3.58D-01 BMatP= 3.28D-01
 IDIUse=3 WtCom= 9.31D-01 WtEn= 6.86D-02
 Coeff-Com:  0.183D-01 0.510D+00 0.472D+00
 Coeff-En:   0.000D+00 0.000D+00 0.100D+01
 Coeff:      0.170D-01 0.475D+00 0.508D+00
 Gap=     0.128 Goal=   None    Shift=    0.000
 RMSDP=9.55D-04 MaxDP=2.57D-01 DE=-1.01D+00 OVMax= 1.12D-01

 Cycle   4  Pass 1  IDiag  1:
 RMSU=  4.64D-04    CP:  1.02D+00  5.41D-01  2.32D-01
 E= -4644.96264523666     Delta-E=       -0.260034890058 Rises=F Damp=F
 DIIS: error= 2.48D-03 at cycle   4 NSaved=   4.
 NSaved= 4 IEnMin= 4 EnMin= -4644.96264523666     IErMin= 4 ErrMin= 2.48D-03
 ErrMax= 2.48D-03  0.00D+00 EMaxC= 1.00D-01 BMatC= 5.72D-02 BMatP= 3.28D-01
 IDIUse=3 WtCom= 9.75D-01 WtEn= 2.48D-02
 Coeff-Com: -0.136D-01 0.169D+00 0.317D+00 0.527D+00
 Coeff-En:   0.000D+00 0.000D+00 0.164D+00 0.836D+00
 Coeff:     -0.133D-01 0.165D+00 0.313D+00 0.535D+00
 Gap=     0.101 Goal=   None    Shift=    0.000
 RMSDP=3.24D-04 MaxDP=1.43D-01 DE=-2.60D-01 OVMax= 5.98D-02

 Cycle   5  Pass 1  IDiag  1:
 RMSU=  1.37D-04    CP:  1.03D+00  5.77D-01  4.62D-01  6.83D-01
 E= -4645.00988567390     Delta-E=       -0.047240437241 Rises=F Damp=F
 DIIS: error= 8.36D-04 at cycle   5 NSaved=   5.
 NSaved= 5 IEnMin= 5 EnMin= -4645.00988567390     IErMin= 5 ErrMin= 8.36D-04
 ErrMax= 8.36D-04  0.00D+00 EMaxC= 1.00D-01 BMatC= 6.05D-03 BMatP= 5.72D-02
 IDIUse=3 WtCom= 9.92D-01 WtEn= 8.36D-03
 Coeff-Com: -0.110D-01 0.392D-01 0.123D+00 0.321D+00 0.528D+00
 Coeff-En:   0.000D+00 0.000D+00 0.000D+00 0.764D-01 0.924D+00
 Coeff:     -0.109D-01 0.389D-01 0.122D+00 0.319D+00 0.531D+00
 Gap=     0.098 Goal=   None    Shift=    0.000
 RMSDP=7.09D-05 MaxDP=2.17D-02 DE=-4.72D-02 OVMax= 1.67D-02

 Cycle   6  Pass 1  IDiag  1:
 RMSU=  4.10D-05    CP:  1.03D+00  5.69D-01  4.32D-01  7.30D-01  6.99D-01
 E= -4645.01498377493     Delta-E=       -0.005098101035 Rises=F Damp=F
 DIIS: error= 4.45D-04 at cycle   6 NSaved=   6.
 NSaved= 6 IEnMin= 6 EnMin= -4645.01498377493     IErMin= 6 ErrMin= 4.45D-04
 ErrMax= 4.45D-04  0.00D+00 EMaxC= 1.00D-01 BMatC= 8.71D-04 BMatP= 6.05D-03
 IDIUse=3 WtCom= 9.96D-01 WtEn= 4.45D-03
 Coeff-Com: -0.509D-02 0.749D-02 0.411D-01 0.136D+00 0.333D+00 0.487D+00
 Coeff-En:   0.000D+00 0.000D+00 0.000D+00 0.000D+00 0.115D+00 0.885D+00
 Coeff:     -0.507D-02 0.746D-02 0.409D-01 0.136D+00 0.332D+00 0.489D+00
 Gap=     0.098 Goal=   None    Shift=    0.000
 RMSDP=2.28D-05 MaxDP=7.02D-03 DE=-5.10D-03 OVMax= 5.78D-03

 Cycle   7  Pass 1  IDiag  1:
 RMSU=  1.52D-05    CP:  1.03D+00  5.74D-01  4.41D-01  7.23D-01  7.54D-01
                    CP:  8.35D-01
 E= -4645.01573785724     Delta-E=       -0.000754082312 Rises=F Damp=F
 DIIS: error= 1.68D-04 at cycle   7 NSaved=   7.
 NSaved= 7 IEnMin= 7 EnMin= -4645.01573785724     IErMin= 7 ErrMin= 1.68D-04
 ErrMax= 1.68D-04  0.00D+00 EMaxC= 1.00D-01 BMatC= 1.14D-04 BMatP= 8.71D-04
 IDIUse=3 WtCom= 9.98D-01 WtEn= 1.68D-03
 Coeff-Com: -0.178D-02 0.195D-03 0.107D-01 0.453D-01 0.146D+00 0.316D+00
 Coeff-Com:  0.483D+00
 Coeff-En:   0.000D+00 0.000D+00 0.000D+00 0.000D+00 0.000D+00 0.988D-01
 Coeff-En:   0.901D+00
 Coeff:     -0.177D-02 0.195D-03 0.107D-01 0.453D-01 0.146D+00 0.316D+00
 Coeff:      0.484D+00
 Gap=     0.098 Goal=   None    Shift=    0.000
 RMSDP=7.36D-06 MaxDP=3.30D-03 DE=-7.54D-04 OVMax= 2.02D-03

 Cycle   8  Pass 1  IDiag  1:
 RMSU=  5.52D-06    CP:  1.03D+00  5.75D-01  4.41D-01  7.24D-01  7.58D-01
                    CP:  7.85D-01  7.54D-01
 E= -4645.01584013319     Delta-E=       -0.000102275944 Rises=F Damp=F
 DIIS: error= 4.33D-05 at cycle   8 NSaved=   8.
 NSaved= 8 IEnMin= 8 EnMin= -4645.01584013319     IErMin= 8 ErrMin= 4.33D-05
 ErrMax= 4.33D-05  0.00D+00 EMaxC= 1.00D-01 BMatC= 8.55D-06 BMatP= 1.14D-04
 IDIUse=1 WtCom= 1.00D+00 WtEn= 0.00D+00
 Coeff-Com: -0.411D-03-0.697D-03 0.147D-02 0.106D-01 0.475D-01 0.129D+00
 Coeff-Com:  0.273D+00 0.539D+00
 Coeff:     -0.411D-03-0.697D-03 0.147D-02 0.106D-01 0.475D-01 0.129D+00
 Coeff:      0.273D+00 0.539D+00
 Gap=     0.098 Goal=   None    Shift=    0.000
 RMSDP=2.87D-06 MaxDP=9.26D-04 DE=-1.02D-04 OVMax= 6.97D-04

 Cycle   9  Pass 1  IDiag  1:
 RMSU=  1.54D-06    CP:  1.03D+00  5.75D-01  4.40D-01  7.26D-01  7.53D-01
                    CP:  7.94D-01  7.62D-01  8.11D-01
 E= -4645.01584677886     Delta-E=       -0.000006645674 Rises=F Damp=F
 DIIS: error= 1.43D-05 at cycle   9 NSaved=   9.
 NSaved= 9 IEnMin= 9 EnMin= -4645.01584677886     IErMin= 9 ErrMin= 1.43D-05
 ErrMax= 1.43D-05  0.00D+00 EMaxC= 1.00D-01 BMatC= 1.56D-06 BMatP= 8.55D-06
 IDIUse=1 WtCom= 1.00D+00 WtEn= 0.00D+00
 Coeff-Com: -0.281D-04-0.394D-03-0.415D-03 0.655D-03 0.109D-01 0.399D-01
 Coeff-Com:  0.104D+00 0.337D+00 0.508D+00
 Coeff:     -0.281D-04-0.394D-03-0.415D-03 0.655D-03 0.109D-01 0.399D-01
 Coeff:      0.104D+00 0.337D+00 0.508D+00
 Gap=     0.098 Goal=   None    Shift=    0.000
 RMSDP=9.54D-07 MaxDP=4.04D-04 DE=-6.65D-06 OVMax= 3.54D-04

 Cycle  10  Pass 1  IDiag  1:
 RMSU=  6.50D-07    CP:  1.03D+00  5.75D-01  4.40D-01  7.26D-01  7.56D-01
                    CP:  7.97D-01  7.68D-01  7.99D-01  7.12D-01
 E= -4645.01584814204     Delta-E=       -0.000001363182 Rises=F Damp=F
 DIIS: error= 4.22D-06 at cycle  10 NSaved=  10.
 NSaved=10 IEnMin=10 EnMin= -4645.01584814204     IErMin=10 ErrMin= 4.22D-06
 ErrMax= 4.22D-06  0.00D+00 EMaxC= 1.00D-01 BMatC= 1.99D-07 BMatP= 1.56D-06
 IDIUse=1 WtCom= 1.00D+00 WtEn= 0.00D+00
 Coeff-Com:  0.224D-04-0.164D-03-0.436D-03-0.847D-03 0.160D-02 0.112D-01
 Coeff-Com:  0.349D-01 0.150D+00 0.320D+00 0.483D+00
 Coeff:      0.224D-04-0.164D-03-0.436D-03-0.847D-03 0.160D-02 0.112D-01
 Coeff:      0.349D-01 0.150D+00 0.320D+00 0.483D+00
 Gap=     0.098 Goal=   None    Shift=    0.000
 RMSDP=4.59D-07 MaxDP=2.49D-04 DE=-1.36D-06 OVMax= 1.42D-04

 Cycle  11  Pass 1  IDiag  1:
 RMSU=  2.23D-07    CP:  1.03D+00  5.75D-01  4.40D-01  7.26D-01  7.56D-01
                    CP:  7.97D-01  7.67D-01  8.25D-01  7.96D-01  6.54D-01
 E= -4645.01584832173     Delta-E=       -0.000000179689 Rises=F Damp=F
 DIIS: error= 1.53D-06 at cycle  11 NSaved=  11.
 NSaved=11 IEnMin=11 EnMin= -4645.01584832173     IErMin=11 ErrMin= 1.53D-06
 ErrMax= 1.53D-06  0.00D+00 EMaxC= 1.00D-01 BMatC= 2.07D-08 BMatP= 1.99D-07
 IDIUse=1 WtCom= 1.00D+00 WtEn= 0.00D+00
 Coeff-Com:  0.124D-04-0.448D-04-0.209D-03-0.575D-03-0.314D-03 0.196D-02
 Coeff-Com:  0.779D-02 0.469D-01 0.127D+00 0.290D+00 0.527D+00
 Coeff:      0.124D-04-0.448D-04-0.209D-03-0.575D-03-0.314D-03 0.196D-02
 Coeff:      0.779D-02 0.469D-01 0.127D+00 0.290D+00 0.527D+00
 Gap=     0.098 Goal=   None    Shift=    0.000
 RMSDP=2.06D-07 MaxDP=7.57D-05 DE=-1.80D-07 OVMax= 3.98D-05

 Cycle  12  Pass 1  IDiag  1:
 RMSU=  1.05D-07    CP:  1.03D+00  5.75D-01  4.40D-01  7.26D-01  7.56D-01
                    CP:  7.98D-01  7.73D-01  8.32D-01  7.78D-01  7.05D-01
                    CP:  6.94D-01
 E= -4645.01584834114     Delta-E=       -0.000000019409 Rises=F Damp=F
 DIIS: error= 4.86D-07 at cycle  12 NSaved=  12.
 NSaved=12 IEnMin=12 EnMin= -4645.01584834114     IErMin=12 ErrMin= 4.86D-07
 ErrMax= 4.86D-07  0.00D+00 EMaxC= 1.00D-01 BMatC= 2.55D-09 BMatP= 2.07D-08
 IDIUse=1 WtCom= 1.00D+00 WtEn= 0.00D+00
 Coeff-Com:  0.341D-05 0.202D-05-0.706D-04-0.243D-03-0.497D-03-0.544D-03
 Coeff-Com: -0.696D-03 0.546D-02 0.279D-01 0.933D-01 0.301D+00 0.574D+00
 Coeff:      0.341D-05 0.202D-05-0.706D-04-0.243D-03-0.497D-03-0.544D-03
 Coeff:     -0.696D-03 0.546D-02 0.279D-01 0.933D-01 0.301D+00 0.574D+00
 Gap=     0.098 Goal=   None    Shift=    0.000
 RMSDP=8.93D-08 MaxDP=3.28D-05 DE=-1.94D-08 OVMax= 1.43D-05

 Cycle  13  Pass 1  IDiag  1:
 RMSU=  3.06D-08    CP:  1.03D+00  5.75D-01  4.40D-01  7.26D-01  7.56D-01
                    CP:  7.98D-01  7.71D-01  8.31D-01  7.88D-01  7.14D-01
                    CP:  7.43D-01  7.19D-01
 E= -4645.01584834362     Delta-E=       -0.000000002479 Rises=F Damp=F
 DIIS: error= 1.62D-07 at cycle  13 NSaved=  13.
 NSaved=13 IEnMin=13 EnMin= -4645.01584834362     IErMin=13 ErrMin= 1.62D-07
 ErrMax= 1.62D-07  0.00D+00 EMaxC= 1.00D-01 BMatC= 3.11D-10 BMatP= 2.55D-09
 IDIUse=1 WtCom= 1.00D+00 WtEn= 0.00D+00
 Coeff-Com: -0.306D-06 0.678D-05-0.135D-04-0.591D-04-0.237D-03-0.568D-03
 Coeff-Com: -0.148D-02-0.322D-02-0.785D-03 0.128D-01 0.102D+00 0.321D+00
 Coeff-Com:  0.571D+00
 Coeff:     -0.306D-06 0.678D-05-0.135D-04-0.591D-04-0.237D-03-0.568D-03
 Coeff:     -0.148D-02-0.322D-02-0.785D-03 0.128D-01 0.102D+00 0.321D+00
 Coeff:      0.571D+00
 Gap=     0.098 Goal=   None    Shift=    0.000
 RMSDP=2.26D-08 MaxDP=7.85D-06 DE=-2.48D-09 OVMax= 4.21D-06

 Cycle  14  Pass 1  IDiag  1:
 RMSU=  1.04D-08    CP:  1.03D+00  5.75D-01  4.40D-01  7.26D-01  7.56D-01
                    CP:  7.98D-01  7.71D-01  8.31D-01  7.89D-01  7.19D-01
                    CP:  7.61D-01  7.79D-01  8.01D-01
 E= -4645.01584834426     Delta-E=       -0.000000000635 Rises=F Damp=F
 DIIS: error= 9.65D-08 at cycle  14 NSaved=  14.
 NSaved=14 IEnMin=14 EnMin= -4645.01584834426     IErMin=14 ErrMin= 9.65D-08
 ErrMax= 9.65D-08  0.00D+00 EMaxC= 1.00D-01 BMatC= 5.67D-11 BMatP= 3.11D-10
 IDIUse=1 WtCom= 1.00D+00 WtEn= 0.00D+00
 Coeff-Com: -0.647D-06 0.379D-05 0.152D-05-0.129D-05-0.747D-04-0.264D-03
 Coeff-Com: -0.788D-03-0.272D-02-0.456D-02-0.698D-02 0.164D-01 0.108D+00
 Coeff-Com:  0.353D+00 0.538D+00
 Coeff:     -0.647D-06 0.379D-05 0.152D-05-0.129D-05-0.747D-04-0.264D-03
 Coeff:     -0.788D-03-0.272D-02-0.456D-02-0.698D-02 0.164D-01 0.108D+00
 Coeff:      0.353D+00 0.538D+00
 Gap=     0.098 Goal=   None    Shift=    0.000
 RMSDP=7.46D-09 MaxDP=2.27D-06 DE=-6.35D-10 OVMax= 1.76D-06

 Cycle  15  Pass 1  IDiag  1:
 RMSU=  4.01D-09    CP:  1.03D+00  5.75D-01  4.40D-01  7.26D-01  7.56D-01
                    CP:  7.98D-01  7.71D-01  8.31D-01  7.89D-01  7.17D-01
                    CP:  7.66D-01  7.91D-01  8.54D-01  8.34D-01
 E= -4645.01584834443     Delta-E=       -0.000000000173 Rises=F Damp=F
 DIIS: error= 5.21D-08 at cycle  15 NSaved=  15.
 NSaved=15 IEnMin=15 EnMin= -4645.01584834443     IErMin=15 ErrMin= 5.21D-08
 ErrMax= 5.21D-08  0.00D+00 EMaxC= 1.00D-01 BMatC= 9.59D-12 BMatP= 5.67D-11
 IDIUse=1 WtCom= 1.00D+00 WtEn= 0.00D+00
 Coeff-Com: -0.318D-06 0.139D-05 0.266D-05 0.683D-05-0.157D-04-0.873D-04
 Coeff-Com: -0.286D-03-0.124D-02-0.269D-02-0.626D-02-0.384D-02 0.232D-01
 Coeff-Com:  0.146D+00 0.344D+00 0.500D+00
 Coeff:     -0.318D-06 0.139D-05 0.266D-05 0.683D-05-0.157D-04-0.873D-04
 Coeff:     -0.286D-03-0.124D-02-0.269D-02-0.626D-02-0.384D-02 0.232D-01
 Coeff:      0.146D+00 0.344D+00 0.500D+00
 Gap=     0.098 Goal=   None    Shift=    0.000
 RMSDP=2.66D-09 MaxDP=8.17D-07 DE=-1.73D-10 OVMax= 8.17D-07

 Error on total polarization charges =  0.08271
 SCF Done:  E(RB3LYP) =  -4645.01584834     A.U. after   15 cycles
            NFock= 15  Conv=0.27D-08     -V/T= 2.0457
 KE= 4.441806182213D+03 PE=-4.137387391164D+04 EE= 1.701397529664D+04
 SMD-CDS (non-electrostatic) energy       (kcal/mol) =     -13.97
 (included in total energy above)
 Leave Link  502 at Wed Jun 12 04:25:47 2024, MaxMem=  8589934592 cpu:          161353.0 elap:            5141.6
 (Enter /opt/packages/gaussian/g16RevC.01/g16/l601.exe)
 Copying SCF densities to generalized density rwf, IOpCl= 0 IROHF=0.
 Hyperfine terms turned off by default for NAtoms > 100.

 **********************************************************************

            Population analysis using the SCF Density.

 **********************************************************************

 Alpha  occ. eigenvalues --  -89.03057 -89.02868 -24.71959 -24.71836 -24.71521
 Alpha  occ. eigenvalues --  -24.71465 -24.71431 -24.71407 -24.70010 -19.14585
 Alpha  occ. eigenvalues --  -19.09457 -19.09331 -19.09196 -19.08988 -14.40332
 Alpha  occ. eigenvalues --  -14.33569 -14.28349 -10.42599 -10.42488 -10.29802
 Alpha  occ. eigenvalues --  -10.27195 -10.27081 -10.23440 -10.23326 -10.23010
 Alpha  occ. eigenvalues --  -10.22839 -10.22766 -10.22018 -10.21741 -10.21696
 Alpha  occ. eigenvalues --  -10.21321 -10.21300 -10.20727 -10.20726 -10.20653
 Alpha  occ. eigenvalues --  -10.20611 -10.20580 -10.20541 -10.20483 -10.20407
 Alpha  occ. eigenvalues --  -10.19824 -10.19507 -10.19468 -10.19377 -10.19338
 Alpha  occ. eigenvalues --  -10.19275 -10.19195 -10.19116 -10.18973 -10.18896
 Alpha  occ. eigenvalues --  -10.18825 -10.18801 -10.18757 -10.18702 -10.18663
 Alpha  occ. eigenvalues --  -10.18635 -10.18595 -10.18292 -10.18168 -10.18152
 Alpha  occ. eigenvalues --  -10.18110 -10.18058 -10.18037 -10.17986 -10.17960
 Alpha  occ. eigenvalues --  -10.17957 -10.17952 -10.17897 -10.17891 -10.17853
 Alpha  occ. eigenvalues --  -10.17822 -10.17787 -10.17779 -10.17708 -10.17398
 Alpha  occ. eigenvalues --  -10.17325 -10.16668  -8.07580  -8.07402  -6.84629
 Alpha  occ. eigenvalues --   -6.03897  -6.03819  -6.03787  -6.03727  -6.03635
 Alpha  occ. eigenvalues --   -6.03606  -4.87161  -4.85853  -4.85839  -1.91938
 Alpha  occ. eigenvalues --   -1.91532  -1.91515  -1.90401  -1.90400  -1.32619
 Alpha  occ. eigenvalues --   -1.32522  -1.24219  -1.23599  -1.23492  -1.23200
 Alpha  occ. eigenvalues --   -1.23132  -1.11272  -1.09739  -1.06790  -1.02517
 Alpha  occ. eigenvalues --   -0.98916  -0.98787  -0.96271  -0.90255  -0.88806
 Alpha  occ. eigenvalues --   -0.88489  -0.88248  -0.88172  -0.88071  -0.85855
 Alpha  occ. eigenvalues --   -0.84901  -0.84034  -0.83840  -0.81643  -0.81523
 Alpha  occ. eigenvalues --   -0.79824  -0.79612  -0.79406  -0.78692  -0.78625
 Alpha  occ. eigenvalues --   -0.78463  -0.76951  -0.76513  -0.76389  -0.76366
 Alpha  occ. eigenvalues --   -0.75140  -0.74754  -0.74593  -0.74285  -0.73314
 Alpha  occ. eigenvalues --   -0.72452  -0.71881  -0.71817  -0.70659  -0.70473
 Alpha  occ. eigenvalues --   -0.69177  -0.67963  -0.67656  -0.65789  -0.65531
 Alpha  occ. eigenvalues --   -0.65049  -0.64841  -0.64675  -0.63653  -0.63515
 Alpha  occ. eigenvalues --   -0.63395  -0.62986  -0.62665  -0.61962  -0.61539
 Alpha  occ. eigenvalues --   -0.61517  -0.60296  -0.60221  -0.60149  -0.59818
 Alpha  occ. eigenvalues --   -0.59706  -0.59471  -0.58344  -0.58192  -0.57886
 Alpha  occ. eigenvalues --   -0.57588  -0.56735  -0.55998  -0.54958  -0.54798
 Alpha  occ. eigenvalues --   -0.54548  -0.53914  -0.53088  -0.52527  -0.52006
 Alpha  occ. eigenvalues --   -0.51842  -0.51379  -0.51226  -0.51060  -0.50406
 Alpha  occ. eigenvalues --   -0.50241  -0.49831  -0.49443  -0.49164  -0.48570
 Alpha  occ. eigenvalues --   -0.48493  -0.48277  -0.48176  -0.48105  -0.48007
 Alpha  occ. eigenvalues --   -0.47808  -0.47647  -0.47301  -0.47227  -0.47161
 Alpha  occ. eigenvalues --   -0.47105  -0.46858  -0.46468  -0.46393  -0.46262
 Alpha  occ. eigenvalues --   -0.45721  -0.45490  -0.45355  -0.45148  -0.44923
 Alpha  occ. eigenvalues --   -0.44822  -0.44759  -0.44377  -0.44261  -0.44237
 Alpha  occ. eigenvalues --   -0.44046  -0.43852  -0.43132  -0.43079  -0.42957
 Alpha  occ. eigenvalues --   -0.42867  -0.42859  -0.42702  -0.42615  -0.42566
 Alpha  occ. eigenvalues --   -0.42328  -0.41915  -0.41799  -0.41659  -0.41274
 Alpha  occ. eigenvalues --   -0.40990  -0.40965  -0.40611  -0.40491  -0.40395
 Alpha  occ. eigenvalues --   -0.40078  -0.39963  -0.39706  -0.39169  -0.39038
 Alpha  occ. eigenvalues --   -0.38847  -0.38609  -0.38165  -0.37876  -0.37521
 Alpha  occ. eigenvalues --   -0.37454  -0.37284  -0.36944  -0.36773  -0.36688
 Alpha  occ. eigenvalues --   -0.36379  -0.36287  -0.36156  -0.35976  -0.35907
 Alpha  occ. eigenvalues --   -0.35615  -0.35204  -0.34970  -0.34812  -0.34600
 Alpha  occ. eigenvalues --   -0.34376  -0.33863  -0.33658  -0.33428  -0.32592
 Alpha  occ. eigenvalues --   -0.32200  -0.31986  -0.31819  -0.31298  -0.30958
 Alpha  occ. eigenvalues --   -0.30255  -0.30075  -0.29930  -0.29121  -0.28607
 Alpha  occ. eigenvalues --   -0.28391  -0.28138  -0.27460  -0.27387  -0.27319
 Alpha  occ. eigenvalues --   -0.27207  -0.27024  -0.26744  -0.26424  -0.26268
 Alpha  occ. eigenvalues --   -0.26152  -0.26107  -0.25765  -0.25298  -0.24958
 Alpha  occ. eigenvalues --   -0.24086  -0.23826  -0.23109  -0.21706  -0.21298
 Alpha virt. eigenvalues --   -0.11467  -0.07127  -0.07065  -0.05835  -0.05676
 Alpha virt. eigenvalues --   -0.04968  -0.03834  -0.03298  -0.03094  -0.02824
 Alpha virt. eigenvalues --   -0.02153  -0.01794  -0.01533  -0.00394   0.00514
 Alpha virt. eigenvalues --    0.00530   0.01293   0.03141   0.04064   0.04418
 Alpha virt. eigenvalues --    0.04506   0.04560   0.04866   0.05147   0.05415
 Alpha virt. eigenvalues --    0.05449   0.05669   0.05769   0.06079   0.06271
 Alpha virt. eigenvalues --    0.06831   0.07055   0.07138   0.07185   0.07327
 Alpha virt. eigenvalues --    0.07751   0.08069   0.08134   0.08381   0.08669
 Alpha virt. eigenvalues --    0.08722   0.08911   0.09010   0.09239   0.09313
 Alpha virt. eigenvalues --    0.09717   0.09829   0.10121   0.10236   0.10395
 Alpha virt. eigenvalues --    0.10465   0.10512   0.10664   0.10799   0.10992
 Alpha virt. eigenvalues --    0.11145   0.11284   0.11437   0.11608   0.11721
 Alpha virt. eigenvalues --    0.11943   0.12065   0.12194   0.12320   0.12565
 Alpha virt. eigenvalues --    0.12762   0.12937   0.13272   0.13380   0.13565
 Alpha virt. eigenvalues --    0.13640   0.13961   0.14036   0.14073   0.14212
 Alpha virt. eigenvalues --    0.14541   0.14579   0.14594   0.14781   0.15066
 Alpha virt. eigenvalues --    0.15241   0.15313   0.15570   0.15681   0.15864
 Alpha virt. eigenvalues --    0.15975   0.16135   0.16268   0.16483   0.16604
 Alpha virt. eigenvalues --    0.16714   0.17009   0.17239   0.17458   0.17661
 Alpha virt. eigenvalues --    0.17919   0.18067   0.18116   0.18386   0.18502
 Alpha virt. eigenvalues --    0.18583   0.18922   0.19008   0.19180   0.19422
 Alpha virt. eigenvalues --    0.19519   0.19650   0.19776   0.19955   0.20226
 Alpha virt. eigenvalues --    0.20362   0.20581   0.20651   0.20792   0.20861
 Alpha virt. eigenvalues --    0.20959   0.20976   0.21302   0.21378   0.21538
 Alpha virt. eigenvalues --    0.21580   0.21724   0.21794   0.22019   0.22088
 Alpha virt. eigenvalues --    0.22197   0.22323   0.22550   0.22671   0.22962
 Alpha virt. eigenvalues --    0.23112   0.23138   0.23320   0.23525   0.23693
 Alpha virt. eigenvalues --    0.23929   0.23985   0.24148   0.24394   0.24535
 Alpha virt. eigenvalues --    0.24614   0.24754   0.24833   0.25040   0.25199
 Alpha virt. eigenvalues --    0.25231   0.25434   0.25628   0.25746   0.25885
 Alpha virt. eigenvalues --    0.26034   0.26304   0.26311   0.26596   0.26816
 Alpha virt. eigenvalues --    0.26822   0.27079   0.27334   0.27480   0.27646
 Alpha virt. eigenvalues --    0.27703   0.28005   0.28070   0.28131   0.28478
 Alpha virt. eigenvalues --    0.28529   0.28709   0.28809   0.28936   0.29107
 Alpha virt. eigenvalues --    0.29130   0.29358   0.29528   0.29558   0.29741
 Alpha virt. eigenvalues --    0.29914   0.30001   0.30085   0.30171   0.30287
 Alpha virt. eigenvalues --    0.30367   0.30571   0.30785   0.30920   0.31120
 Alpha virt. eigenvalues --    0.31308   0.31399   0.31553   0.31688   0.31914
 Alpha virt. eigenvalues --    0.32002   0.32229   0.32363   0.32471   0.32660
 Alpha virt. eigenvalues --    0.32701   0.32849   0.33117   0.33368   0.33404
 Alpha virt. eigenvalues --    0.33648   0.33728   0.33969   0.34004   0.34091
 Alpha virt. eigenvalues --    0.34208   0.34276   0.34507   0.34725   0.35042
 Alpha virt. eigenvalues --    0.35061   0.35231   0.35348   0.35458   0.35751
 Alpha virt. eigenvalues --    0.35845   0.36005   0.36408   0.36466   0.36655
 Alpha virt. eigenvalues --    0.36701   0.37002   0.37061   0.37318   0.37473
 Alpha virt. eigenvalues --    0.37524   0.37707   0.37797   0.37912   0.38132
 Alpha virt. eigenvalues --    0.38178   0.38286   0.38498   0.38682   0.38767
 Alpha virt. eigenvalues --    0.38899   0.39091   0.39237   0.39372   0.39489
 Alpha virt. eigenvalues --    0.39601   0.39749   0.39817   0.39969   0.40200
 Alpha virt. eigenvalues --    0.40353   0.40410   0.40629   0.40824   0.40995
 Alpha virt. eigenvalues --    0.41052   0.41267   0.41568   0.41614   0.41693
 Alpha virt. eigenvalues --    0.41943   0.42024   0.42143   0.42313   0.42351
 Alpha virt. eigenvalues --    0.42504   0.42713   0.42762   0.42913   0.43111
 Alpha virt. eigenvalues --    0.43176   0.43230   0.43379   0.43484   0.43651
 Alpha virt. eigenvalues --    0.43691   0.43746   0.43886   0.44150   0.44263
 Alpha virt. eigenvalues --    0.44527   0.44604   0.44765   0.44862   0.44967
 Alpha virt. eigenvalues --    0.45069   0.45157   0.45385   0.45462   0.45705
 Alpha virt. eigenvalues --    0.45783   0.45866   0.46133   0.46427   0.46529
 Alpha virt. eigenvalues --    0.46758   0.46923   0.47001   0.47171   0.47265
 Alpha virt. eigenvalues --    0.47492   0.47616   0.47773   0.47857   0.48012
 Alpha virt. eigenvalues --    0.48092   0.48362   0.48469   0.48546   0.48887
 Alpha virt. eigenvalues --    0.49030   0.49122   0.49381   0.49410   0.49685
 Alpha virt. eigenvalues --    0.49811   0.49920   0.50061   0.50171   0.50302
 Alpha virt. eigenvalues --    0.50494   0.50640   0.50764   0.51017   0.51123
 Alpha virt. eigenvalues --    0.51129   0.51519   0.51580   0.51670   0.51949
 Alpha virt. eigenvalues --    0.52006   0.52149   0.52219   0.52465   0.52590
 Alpha virt. eigenvalues --    0.52709   0.52949   0.53185   0.53343   0.53450
 Alpha virt. eigenvalues --    0.53853   0.53936   0.54061   0.54456   0.54507
 Alpha virt. eigenvalues --    0.54614   0.54736   0.54966   0.55132   0.55250
 Alpha virt. eigenvalues --    0.55534   0.55591   0.55936   0.56037   0.56405
 Alpha virt. eigenvalues --    0.56652   0.56844   0.57285   0.57461   0.57589
 Alpha virt. eigenvalues --    0.57943   0.58043   0.58212   0.58423   0.58563
 Alpha virt. eigenvalues --    0.58613   0.58776   0.59091   0.59275   0.59549
 Alpha virt. eigenvalues --    0.59732   0.59852   0.60005   0.60195   0.60539
 Alpha virt. eigenvalues --    0.60620   0.60897   0.61081   0.61240   0.61411
 Alpha virt. eigenvalues --    0.61667   0.61948   0.62094   0.62206   0.62335
 Alpha virt. eigenvalues --    0.62499   0.62690   0.62825   0.63058   0.63273
 Alpha virt. eigenvalues --    0.63419   0.63533   0.63815   0.64001   0.64171
 Alpha virt. eigenvalues --    0.64360   0.64556   0.64644   0.64910   0.64989
 Alpha virt. eigenvalues --    0.65238   0.65482   0.65635   0.65679   0.65825
 Alpha virt. eigenvalues --    0.65953   0.66016   0.66246   0.66293   0.66527
 Alpha virt. eigenvalues --    0.66804   0.66880   0.67071   0.67182   0.67364
 Alpha virt. eigenvalues --    0.67544   0.67744   0.67800   0.68007   0.68060
 Alpha virt. eigenvalues --    0.68274   0.68448   0.68580   0.68642   0.68871
 Alpha virt. eigenvalues --    0.68953   0.69102   0.69321   0.69348   0.69437
 Alpha virt. eigenvalues --    0.69569   0.69658   0.69974   0.70199   0.70308
 Alpha virt. eigenvalues --    0.70428   0.70476   0.70808   0.70873   0.71084
 Alpha virt. eigenvalues --    0.71358   0.71591   0.71673   0.71721   0.71905
 Alpha virt. eigenvalues --    0.71984   0.72245   0.72356   0.72438   0.72506
 Alpha virt. eigenvalues --    0.72885   0.72962   0.73052   0.73189   0.73485
 Alpha virt. eigenvalues --    0.73551   0.73836   0.74005   0.74208   0.74427
 Alpha virt. eigenvalues --    0.74651   0.74899   0.75057   0.75177   0.75441
 Alpha virt. eigenvalues --    0.75661   0.75763   0.75841   0.75898   0.75995
 Alpha virt. eigenvalues --    0.76442   0.76526   0.76652   0.76846   0.77092
 Alpha virt. eigenvalues --    0.77321   0.77580   0.77701   0.77912   0.78154
 Alpha virt. eigenvalues --    0.78273   0.78360   0.78608   0.78686   0.78938
 Alpha virt. eigenvalues --    0.79120   0.79242   0.79408   0.79439   0.79700
 Alpha virt. eigenvalues --    0.79776   0.79886   0.80232   0.80401   0.80537
 Alpha virt. eigenvalues --    0.80785   0.80927   0.80985   0.81261   0.81403
 Alpha virt. eigenvalues --    0.81572   0.81853   0.82013   0.82157   0.82348
 Alpha virt. eigenvalues --    0.82353   0.82737   0.82959   0.83046   0.83104
 Alpha virt. eigenvalues --    0.83474   0.83637   0.83740   0.84044   0.84084
 Alpha virt. eigenvalues --    0.84352   0.84552   0.84872   0.84999   0.85153
 Alpha virt. eigenvalues --    0.85324   0.85364   0.85499   0.85806   0.85879
 Alpha virt. eigenvalues --    0.86163   0.86367   0.86552   0.86659   0.86707
 Alpha virt. eigenvalues --    0.87164   0.87204   0.87582   0.87680   0.87889
 Alpha virt. eigenvalues --    0.88113   0.88310   0.88799   0.88852   0.89141
 Alpha virt. eigenvalues --    0.89203   0.89424   0.89541   0.89708   0.89836
 Alpha virt. eigenvalues --    0.90061   0.90155   0.90261   0.90535   0.90763
 Alpha virt. eigenvalues --    0.91006   0.91096   0.91127   0.91501   0.91639
 Alpha virt. eigenvalues --    0.91864   0.92063   0.92252   0.92256   0.92405
 Alpha virt. eigenvalues --    0.92428   0.92584   0.92764   0.92872   0.93013
 Alpha virt. eigenvalues --    0.93251   0.93599   0.93718   0.93950   0.94037
 Alpha virt. eigenvalues --    0.94313   0.94574   0.94680   0.94902   0.95171
 Alpha virt. eigenvalues --    0.95278   0.95560   0.95723   0.95847   0.96011
 Alpha virt. eigenvalues --    0.96354   0.96485   0.96613   0.96861   0.96919
 Alpha virt. eigenvalues --    0.97094   0.97301   0.97363   0.97558   0.97795
 Alpha virt. eigenvalues --    0.97846   0.97893   0.98210   0.98214   0.98626
 Alpha virt. eigenvalues --    0.98785   0.98825   0.99065   0.99132   0.99386
 Alpha virt. eigenvalues --    0.99669   0.99925   1.00113   1.00198   1.00366
 Alpha virt. eigenvalues --    1.00424   1.00666   1.00864   1.01256   1.01490
 Alpha virt. eigenvalues --    1.01616   1.01947   1.02107   1.02244   1.02440
 Alpha virt. eigenvalues --    1.02771   1.02981   1.03225   1.03325   1.03624
 Alpha virt. eigenvalues --    1.03776   1.03948   1.04208   1.04330   1.04437
 Alpha virt. eigenvalues --    1.04641   1.04941   1.05448   1.05631   1.05755
 Alpha virt. eigenvalues --    1.05856   1.06067   1.06215   1.06715   1.06867
 Alpha virt. eigenvalues --    1.07015   1.07126   1.07221   1.07476   1.07613
 Alpha virt. eigenvalues --    1.07966   1.08120   1.08286   1.08419   1.08448
 Alpha virt. eigenvalues --    1.08725   1.08731   1.09142   1.09284   1.09395
 Alpha virt. eigenvalues --    1.09682   1.09779   1.09985   1.10003   1.10379
 Alpha virt. eigenvalues --    1.10835   1.11002   1.11028   1.11336   1.11753
 Alpha virt. eigenvalues --    1.11824   1.12087   1.12206   1.12366   1.12611
 Alpha virt. eigenvalues --    1.12698   1.12764   1.13159   1.13306   1.13535
 Alpha virt. eigenvalues --    1.13620   1.13826   1.13932   1.14189   1.14522
 Alpha virt. eigenvalues --    1.14929   1.15045   1.15139   1.15401   1.15590
 Alpha virt. eigenvalues --    1.15646   1.15748   1.15987   1.16007   1.16268
 Alpha virt. eigenvalues --    1.16362   1.16469   1.16653   1.16924   1.17059
 Alpha virt. eigenvalues --    1.17307   1.17456   1.17650   1.17972   1.18103
 Alpha virt. eigenvalues --    1.18209   1.18303   1.18482   1.18686   1.19171
 Alpha virt. eigenvalues --    1.19414   1.19511   1.19797   1.19990   1.20092
 Alpha virt. eigenvalues --    1.20350   1.20700   1.20805   1.21033   1.21215
 Alpha virt. eigenvalues --    1.21441   1.21542   1.21804   1.21919   1.22046
 Alpha virt. eigenvalues --    1.22371   1.22476   1.22511   1.22744   1.23106
 Alpha virt. eigenvalues --    1.23287   1.23482   1.23709   1.23819   1.24310
 Alpha virt. eigenvalues --    1.24400   1.24576   1.24795   1.25064   1.25173
 Alpha virt. eigenvalues --    1.25281   1.25811   1.25994   1.26026   1.26279
 Alpha virt. eigenvalues --    1.26422   1.26616   1.26721   1.26988   1.27189
 Alpha virt. eigenvalues --    1.27462   1.27607   1.27761   1.28114   1.28207
 Alpha virt. eigenvalues --    1.28412   1.28630   1.28787   1.28963   1.29078
 Alpha virt. eigenvalues --    1.29332   1.29604   1.29742   1.29861   1.30029
 Alpha virt. eigenvalues --    1.30152   1.30404   1.30621   1.30677   1.30999
 Alpha virt. eigenvalues --    1.31290   1.31468   1.31592   1.31656   1.31902
 Alpha virt. eigenvalues --    1.32108   1.32265   1.32534   1.32686   1.32822
 Alpha virt. eigenvalues --    1.33096   1.33172   1.33373   1.33627   1.33699
 Alpha virt. eigenvalues --    1.33936   1.34153   1.34211   1.34363   1.34671
 Alpha virt. eigenvalues --    1.34812   1.34902   1.35126   1.35162   1.35444
 Alpha virt. eigenvalues --    1.35905   1.35966   1.36047   1.36232   1.36357
 Alpha virt. eigenvalues --    1.36563   1.36839   1.37030   1.37155   1.37415
 Alpha virt. eigenvalues --    1.37464   1.37718   1.37848   1.37985   1.38201
 Alpha virt. eigenvalues --    1.38303   1.38332   1.38604   1.38947   1.39168
 Alpha virt. eigenvalues --    1.39406   1.39531   1.39814   1.39860   1.40127
 Alpha virt. eigenvalues --    1.40354   1.40525   1.40782   1.40901   1.41183
 Alpha virt. eigenvalues --    1.41489   1.41714   1.41935   1.42042   1.42316
 Alpha virt. eigenvalues --    1.42675   1.42836   1.43025   1.43257   1.43365
 Alpha virt. eigenvalues --    1.43574   1.43764   1.43981   1.44180   1.44298
 Alpha virt. eigenvalues --    1.44433   1.44469   1.44780   1.44883   1.44991
 Alpha virt. eigenvalues --    1.45284   1.45451   1.45633   1.45973   1.46066
 Alpha virt. eigenvalues --    1.46203   1.46295   1.46607   1.46690   1.46945
 Alpha virt. eigenvalues --    1.47206   1.47337   1.47677   1.47705   1.47940
 Alpha virt. eigenvalues --    1.48396   1.48548   1.48836   1.48908   1.49068
 Alpha virt. eigenvalues --    1.49160   1.49835   1.49998   1.50409   1.50700
 Alpha virt. eigenvalues --    1.50783   1.50878   1.51290   1.51443   1.51750
 Alpha virt. eigenvalues --    1.51863   1.51939   1.52120   1.52410   1.52762
 Alpha virt. eigenvalues --    1.52873   1.53316   1.53429   1.53689   1.54049
 Alpha virt. eigenvalues --    1.54334   1.54641   1.54942   1.55010   1.55195
 Alpha virt. eigenvalues --    1.55402   1.55502   1.55756   1.56139   1.56315
 Alpha virt. eigenvalues --    1.56370   1.56572   1.56847   1.57064   1.57106
 Alpha virt. eigenvalues --    1.57516   1.57584   1.57913   1.58226   1.58402
 Alpha virt. eigenvalues --    1.58625   1.58640   1.58942   1.59050   1.59202
 Alpha virt. eigenvalues --    1.59658   1.59787   1.60115   1.60456   1.60881
 Alpha virt. eigenvalues --    1.61233   1.61553   1.61753   1.61961   1.62078
 Alpha virt. eigenvalues --    1.62182   1.62405   1.62458   1.62555   1.62976
 Alpha virt. eigenvalues --    1.63079   1.63167   1.63333   1.63833   1.63987
 Alpha virt. eigenvalues --    1.64248   1.64552   1.64740   1.64863   1.65008
 Alpha virt. eigenvalues --    1.65287   1.65685   1.65991   1.66204   1.66364
 Alpha virt. eigenvalues --    1.66574   1.66638   1.66756   1.67074   1.67282
 Alpha virt. eigenvalues --    1.67579   1.67761   1.67786   1.68193   1.68291
 Alpha virt. eigenvalues --    1.68607   1.68729   1.68836   1.68928   1.69094
 Alpha virt. eigenvalues --    1.69321   1.69535   1.69662   1.69945   1.70322
 Alpha virt. eigenvalues --    1.70492   1.70838   1.71006   1.71054   1.71486
 Alpha virt. eigenvalues --    1.71725   1.71901   1.72277   1.72429   1.72800
 Alpha virt. eigenvalues --    1.73058   1.73230   1.73585   1.73760   1.74022
 Alpha virt. eigenvalues --    1.74121   1.74251   1.74470   1.74807   1.75001
 Alpha virt. eigenvalues --    1.75360   1.75419   1.75550   1.75754   1.75897
 Alpha virt. eigenvalues --    1.76189   1.76485   1.76525   1.76607   1.76922
 Alpha virt. eigenvalues --    1.77025   1.77321   1.77583   1.77877   1.78244
 Alpha virt. eigenvalues --    1.78493   1.78649   1.78877   1.79192   1.79607
 Alpha virt. eigenvalues --    1.79668   1.79950   1.80062   1.80482   1.80699
 Alpha virt. eigenvalues --    1.80839   1.81254   1.81427   1.81558   1.82129
 Alpha virt. eigenvalues --    1.82435   1.82597   1.82778   1.83020   1.83356
 Alpha virt. eigenvalues --    1.83847   1.84014   1.84289   1.84421   1.84762
 Alpha virt. eigenvalues --    1.84987   1.85519   1.85557   1.85787   1.85950
 Alpha virt. eigenvalues --    1.86347   1.86454   1.86907   1.87040   1.87383
 Alpha virt. eigenvalues --    1.87613   1.87749   1.87926   1.88466   1.88823
 Alpha virt. eigenvalues --    1.89097   1.89147   1.89632   1.89844   1.90287
 Alpha virt. eigenvalues --    1.90730   1.91077   1.91301   1.91644   1.91895
 Alpha virt. eigenvalues --    1.92232   1.92513   1.93153   1.93188   1.93362
 Alpha virt. eigenvalues --    1.93724   1.94170   1.94272   1.94594   1.94825
 Alpha virt. eigenvalues --    1.95099   1.95364   1.95519   1.95823   1.96228
 Alpha virt. eigenvalues --    1.96722   1.96857   1.96944   1.97277   1.97505
 Alpha virt. eigenvalues --    1.97782   1.98245   1.98340   1.98481   1.98840
 Alpha virt. eigenvalues --    1.99164   1.99370   1.99596   1.99849   2.00117
 Alpha virt. eigenvalues --    2.00495   2.00813   2.00867   2.01079   2.01762
 Alpha virt. eigenvalues --    2.01893   2.02011   2.02620   2.02800   2.03194
 Alpha virt. eigenvalues --    2.03344   2.03469   2.03934   2.04159   2.04426
 Alpha virt. eigenvalues --    2.04608   2.04932   2.05100   2.05406   2.05766
 Alpha virt. eigenvalues --    2.05945   2.06263   2.06526   2.06846   2.06966
 Alpha virt. eigenvalues --    2.07225   2.07504   2.07742   2.08081   2.08256
 Alpha virt. eigenvalues --    2.08529   2.08624   2.08905   2.09195   2.09219
 Alpha virt. eigenvalues --    2.09485   2.09629   2.09792   2.10129   2.10492
 Alpha virt. eigenvalues --    2.10802   2.11142   2.11277   2.11525   2.11644
 Alpha virt. eigenvalues --    2.12006   2.12318   2.12340   2.12660   2.12936
 Alpha virt. eigenvalues --    2.13192   2.13716   2.13834   2.14120   2.14246
 Alpha virt. eigenvalues --    2.14509   2.14636   2.15014   2.15315   2.15500
 Alpha virt. eigenvalues --    2.15838   2.16114   2.16514   2.16914   2.17063
 Alpha virt. eigenvalues --    2.17326   2.17478   2.17754   2.18237   2.18371
 Alpha virt. eigenvalues --    2.19004   2.19400   2.19668   2.20260   2.20972
 Alpha virt. eigenvalues --    2.21176   2.21375   2.21722   2.22030   2.22191
 Alpha virt. eigenvalues --    2.22759   2.22908   2.23133   2.23276   2.23414
 Alpha virt. eigenvalues --    2.24087   2.24485   2.24672   2.24995   2.25142
 Alpha virt. eigenvalues --    2.25627   2.26140   2.26184   2.26331   2.26705
 Alpha virt. eigenvalues --    2.27124   2.27390   2.27785   2.28174   2.28219
 Alpha virt. eigenvalues --    2.28493   2.28801   2.29046   2.29267   2.29419
 Alpha virt. eigenvalues --    2.29984   2.30309   2.30520   2.30758   2.31149
 Alpha virt. eigenvalues --    2.31350   2.31635   2.31863   2.32438   2.32448
 Alpha virt. eigenvalues --    2.33123   2.33468   2.33695   2.33970   2.34039
 Alpha virt. eigenvalues --    2.34238   2.34431   2.34536   2.34842   2.35210
 Alpha virt. eigenvalues --    2.35668   2.35930   2.36072   2.36365   2.36624
 Alpha virt. eigenvalues --    2.36808   2.36970   2.37300   2.37437   2.37717
 Alpha virt. eigenvalues --    2.37892   2.38229   2.38354   2.38957   2.39130
 Alpha virt. eigenvalues --    2.39540   2.39676   2.39842   2.40284   2.40388
 Alpha virt. eigenvalues --    2.40685   2.40854   2.40977   2.41091   2.41428
 Alpha virt. eigenvalues --    2.41697   2.41854   2.42053   2.42307   2.43079
 Alpha virt. eigenvalues --    2.43375   2.43508   2.43675   2.43801   2.44335
 Alpha virt. eigenvalues --    2.44690   2.45274   2.45435   2.45844   2.46101
 Alpha virt. eigenvalues --    2.46486   2.46609   2.47495   2.47732   2.48092
 Alpha virt. eigenvalues --    2.48182   2.49169   2.49549   2.49945   2.50272
 Alpha virt. eigenvalues --    2.50682   2.50768   2.51387   2.51736   2.51840
 Alpha virt. eigenvalues --    2.52206   2.52427   2.52723   2.53051   2.53969
 Alpha virt. eigenvalues --    2.54046   2.54535   2.54883   2.55408   2.55567
 Alpha virt. eigenvalues --    2.56285   2.56326   2.56880   2.57046   2.57232
 Alpha virt. eigenvalues --    2.57573   2.57836   2.57955   2.58382   2.58641
 Alpha virt. eigenvalues --    2.58725   2.59501   2.60028   2.60149   2.60344
 Alpha virt. eigenvalues --    2.60775   2.60821   2.61295   2.61384   2.61575
 Alpha virt. eigenvalues --    2.61911   2.62041   2.62432   2.62701   2.62836
 Alpha virt. eigenvalues --    2.63299   2.63611   2.63710   2.64144   2.64225
 Alpha virt. eigenvalues --    2.64412   2.64817   2.65161   2.65341   2.66069
 Alpha virt. eigenvalues --    2.66383   2.66474   2.66693   2.66815   2.67115
 Alpha virt. eigenvalues --    2.67369   2.67757   2.68138   2.68174   2.68517
 Alpha virt. eigenvalues --    2.68705   2.68780   2.69416   2.69786   2.69901
 Alpha virt. eigenvalues --    2.70282   2.70507   2.70649   2.70830   2.71269
 Alpha virt. eigenvalues --    2.71433   2.71640   2.71908   2.71992   2.72186
 Alpha virt. eigenvalues --    2.72547   2.72687   2.72914   2.73152   2.73295
 Alpha virt. eigenvalues --    2.73912   2.74122   2.74274   2.74498   2.74689
 Alpha virt. eigenvalues --    2.74952   2.75015   2.75282   2.75359   2.75477
 Alpha virt. eigenvalues --    2.75766   2.75940   2.76234   2.76501   2.76845
[...]
 Alpha virt. eigenvalues --    4.53432   4.53722   4.53884   4.54437   4.55516
 Alpha virt. eigenvalues --    4.55882   4.56092   4.56383   4.56566   4.56885
 Alpha virt. eigenvalues --    4.57577   4.57958   4.58186   4.58439   4.58809
 Alpha virt. eigenvalues --    4.59085   4.59568   4.60084   4.60875   4.61159
 Alpha virt. eigenvalues --    4.61633   4.62746   4.62826   4.63457   4.63689
 Alpha virt. eigenvalues --    4.63956   4.64355   4.64552   4.64733   4.64769
 Alpha virt. eigenvalues --    4.65148   4.65243   4.65419   4.65562   4.65847
 Alpha virt. eigenvalues --    4.66144   4.66253   4.66343   4.66887   4.67050
 Alpha virt. eigenvalues --    4.67337   4.67638   4.68321   4.68445   4.68767
 Alpha virt. eigenvalues --    4.69318   4.69705   4.70135   4.70182   4.70713
 Alpha virt. eigenvalues --    4.70968   4.71073   4.71265   4.71787   4.72197
 Alpha virt. eigenvalues --    4.72537   4.72614   4.73073   4.73540   4.73731
 Alpha virt. eigenvalues --    4.74242   4.74581   4.74893   4.75310   4.75564
 Alpha virt. eigenvalues --    4.75719   4.75945   4.76295   4.76669   4.76867
 Alpha virt. eigenvalues --    4.77376   4.77519   4.78147   4.78373   4.78637
 Alpha virt. eigenvalues --    4.78978   4.79424   4.79860   4.80274   4.80421
 Alpha virt. eigenvalues --    4.80827   4.80888   4.81366   4.81594   4.81931
 Alpha virt. eigenvalues --    4.82401   4.83105   4.83348   4.83590   4.84024
 Alpha virt. eigenvalues --    4.84834   4.85093   4.85230   4.85503   4.85733
 Alpha virt. eigenvalues --    4.86778   4.86887   4.87358   4.87850   4.87928
 Alpha virt. eigenvalues --    4.89049   4.89724   4.90035   4.90332   4.90566
 Alpha virt. eigenvalues --    4.90746   4.91269   4.91742   4.92271   4.92478
 Alpha virt. eigenvalues --    4.92665   4.93012   4.93695   4.94369   4.94471
 Alpha virt. eigenvalues --    4.94720   4.95053   4.95404   4.96218   4.97529
 Alpha virt. eigenvalues --    4.98219   4.98800   4.98847   4.99303   4.99643
 Alpha virt. eigenvalues --    5.00261   5.00839   5.01467   5.01742   5.02160
 Alpha virt. eigenvalues --    5.02597   5.02805   5.03589   5.03804   5.03964
 Alpha virt. eigenvalues --    5.04363   5.04764   5.05001   5.05115   5.05937
 Alpha virt. eigenvalues --    5.06145   5.06349   5.07529   5.07787   5.08378
 Alpha virt. eigenvalues --    5.09052   5.09414   5.10366   5.10479   5.10686
 Alpha virt. eigenvalues --    5.11417   5.11747   5.11971   5.12317   5.12445
 Alpha virt. eigenvalues --    5.12912   5.13119   5.13547   5.14189   5.14724
 Alpha virt. eigenvalues --    5.15498   5.15759   5.16063   5.16228   5.16529
 Alpha virt. eigenvalues --    5.17478   5.17791   5.18089   5.18296   5.18611
 Alpha virt. eigenvalues --    5.18761   5.19280   5.19315   5.19714   5.19809
 Alpha virt. eigenvalues --    5.20106   5.20238   5.20348   5.20819   5.21253
 Alpha virt. eigenvalues --    5.21678   5.21828   5.22110   5.22279   5.22381
 Alpha virt. eigenvalues --    5.22610   5.22865   5.23415   5.23672   5.24006
 Alpha virt. eigenvalues --    5.24167   5.24563   5.25056   5.25473   5.25642
 Alpha virt. eigenvalues --    5.26021   5.26201   5.26491   5.27062   5.27376
 Alpha virt. eigenvalues --    5.27554   5.28089   5.28500   5.28873   5.29424
 Alpha virt. eigenvalues --    5.30128   5.30215   5.30706   5.30872   5.31122
 Alpha virt. eigenvalues --    5.31694   5.31768   5.32541   5.32696   5.32999
 Alpha virt. eigenvalues --    5.33376   5.33701   5.33862   5.34138   5.34392
 Alpha virt. eigenvalues --    5.34499   5.35115   5.35428   5.35637   5.35870
 Alpha virt. eigenvalues --    5.36339   5.36438   5.36964   5.37374   5.37829
 Alpha virt. eigenvalues --    5.38094   5.38675   5.39160   5.39508   5.40070
 Alpha virt. eigenvalues --    5.40621   5.40945   5.41397   5.42042   5.42401
 Alpha virt. eigenvalues --    5.42700   5.42757   5.43412   5.43613   5.44296
 Alpha virt. eigenvalues --    5.44376   5.45029   5.45312   5.45782   5.46393
 Alpha virt. eigenvalues --    5.46609   5.47155   5.47757   5.48066   5.48731
 Alpha virt. eigenvalues --    5.49257   5.49372   5.50300   5.50721   5.51210
 Alpha virt. eigenvalues --    5.52024   5.52140   5.52506   5.52848   5.53232
 Alpha virt. eigenvalues --    5.54368   5.54942   5.55701   5.56219   5.56294
 Alpha virt. eigenvalues --    5.56429   5.57749   5.58642   5.58827   5.58988
 Alpha virt. eigenvalues --    5.59347   5.59676   5.60141   5.60519   5.60863
 Alpha virt. eigenvalues --    5.60924   5.61821   5.62260   5.62493   5.62806
 Alpha virt. eigenvalues --    5.62994   5.63359   5.63521   5.63836   5.64410
 Alpha virt. eigenvalues --    5.64639   5.65248   5.65735   5.66151   5.67283
 Alpha virt. eigenvalues --    5.67408   5.69058   5.69774   5.69904   5.70359
 Alpha virt. eigenvalues --    5.71215   5.71741   5.71890   5.72304   5.73445
 Alpha virt. eigenvalues --    5.74477   5.74944   5.75324   5.76558   5.76648
 Alpha virt. eigenvalues --    5.77660   5.78370   5.78996   5.80329   5.81414
 Alpha virt. eigenvalues --    5.81736   5.81990   5.82338   5.82993   5.83300
 Alpha virt. eigenvalues --    5.85293   5.85487   5.87113   5.87498   5.88758
 Alpha virt. eigenvalues --    5.88971   5.90990   5.92689   5.95050   5.95970
 Alpha virt. eigenvalues --    5.97481   5.99665   6.00422   6.01326   6.02241
 Alpha virt. eigenvalues --    6.02850   6.03052   6.03394   6.04955   6.06472
 Alpha virt. eigenvalues --    6.06570   6.06870   6.07864   6.09325   6.11337
 Alpha virt. eigenvalues --    6.11969   6.12746   6.14300   6.16253   6.17033
 Alpha virt. eigenvalues --    6.21218   6.23640   6.23747   6.25376   6.34920
 Alpha virt. eigenvalues --    6.39726   6.42456   6.45155   6.46415   6.46630
 Alpha virt. eigenvalues --    6.50209   6.53692   6.53883   6.56237   6.57270
 Alpha virt. eigenvalues --    6.58884   6.60227   6.61477   6.67765   6.69618
 Alpha virt. eigenvalues --    6.71178   6.75413   6.76176   6.76277   6.77919
 Alpha virt. eigenvalues --    6.78600   6.78813   6.79801   6.82369   6.82429
 Alpha virt. eigenvalues --    6.82734   6.82862   6.83052   6.83731   6.83797
 Alpha virt. eigenvalues --    6.84408   6.84453   6.84909   6.85026   6.85663
 Alpha virt. eigenvalues --    6.85732   6.85941   6.86307   6.86325   6.86873
 Alpha virt. eigenvalues --    6.86948   6.87296   6.87774   6.88593   6.89514
 Alpha virt. eigenvalues --    6.91502   6.95429   6.97048   6.97120   6.97219
 Alpha virt. eigenvalues --    6.98061   6.98672   6.99725   7.01268   7.01601
 Alpha virt. eigenvalues --    7.01750   7.04855   7.05581   7.07039   7.08663
 Alpha virt. eigenvalues --    7.09109   7.09805   7.11263   7.12805   7.13124
 Alpha virt. eigenvalues --    7.13253   7.14857   7.19806   7.23752   7.26980
 Alpha virt. eigenvalues --    7.33746   7.36278   7.36369   7.36386   7.37083
 Alpha virt. eigenvalues --    7.40241   7.43631   7.43775   7.47898   7.48537
 Alpha virt. eigenvalues --    7.48705   7.54988   7.56681   7.58953   7.58978
 Alpha virt. eigenvalues --    7.62638   7.62664   7.66416   7.86569   7.88740
 Alpha virt. eigenvalues --    7.98888   8.05345   8.26556   8.28515   8.29921
 Alpha virt. eigenvalues --    8.30798   8.30810   8.31628   8.40970   8.44953
 Alpha virt. eigenvalues --    8.45781   8.49058   8.50084   8.57341   8.57816
 Alpha virt. eigenvalues --    8.62150   8.67313   8.67695   8.75079   8.75413
 Alpha virt. eigenvalues --    8.78515   8.78707   8.80945   8.88660   8.89384
 Alpha virt. eigenvalues --    8.94653   8.95472   8.97815   8.99347   8.99807
 Alpha virt. eigenvalues --    9.03688   9.07251   9.09545   9.11404   9.14275
 Alpha virt. eigenvalues --    9.16061   9.17608   9.53690   9.55492   9.74510
 Alpha virt. eigenvalues --    9.83381  10.16027  10.18144  22.55418  22.64063
 Alpha virt. eigenvalues --   22.65369  22.69510  22.77793  22.82266  22.86059
 Alpha virt. eigenvalues --   22.88359  22.89401  22.93166  22.96898  23.00910
 Alpha virt. eigenvalues --   23.02771  23.03000  23.05503  23.06625  23.07397
 Alpha virt. eigenvalues --   23.09407  23.10045  23.11218  23.13097  23.13627
 Alpha virt. eigenvalues --   23.15140  23.16190  23.17910  23.18598  23.18829
 Alpha virt. eigenvalues --   23.20124  23.22518  23.22703  23.23428  23.24315
 Alpha virt. eigenvalues --   23.24746  23.26296  23.26753  23.28144  23.29322
 Alpha virt. eigenvalues --   23.30162  23.31252  23.32178  23.33625  23.35073
 Alpha virt. eigenvalues --   23.36817  23.41293  23.42317  23.42947  23.43484
 Alpha virt. eigenvalues --   23.51023  23.54354  23.55756  23.62815  23.70079
 Alpha virt. eigenvalues --   23.80924  23.81373  23.90190  24.12197  24.12675
 Alpha virt. eigenvalues --   24.16344  24.22533  24.26903  24.32933  24.43125
 Alpha virt. eigenvalues --   32.50108  32.86481  33.25242  34.63259  34.66528
 Alpha virt. eigenvalues --   34.91449  42.93861  43.90645  43.99895  44.14627
 Alpha virt. eigenvalues --   44.25071  44.28080  57.10312  57.15150  57.23011
 Alpha virt. eigenvalues --   57.26794  57.47408  57.53313  57.61816 117.85562
          Condensed to atoms (all electrons):
 Mulliken charges:
               1
     1  C    0.163604
     2  C    0.087110
     3  C   -0.005030
     4  C   -0.165332
     5  C    0.270765
     6  N   -0.287001
     7  H    0.143878
     8  C   -0.160309
     9  C    0.120625
    10  C   -0.129278
    11  C   -0.142339
    12  C   -0.130378
    13  H    0.147216
    14  H    0.151962
    15  H    0.151200
    16  C    0.332964
    17  C    0.084718
    18  C   -0.250788
    19  C   -0.210492
    20  C   -0.149108
    21  H    0.157666
    22  C   -0.153683
    23  H    0.152341
    24  C   -0.178515
    25  H    0.151292
    26  H    0.153155
    27  H    0.153464
    28  F   -0.221572
    29  C   -0.305661
    30  H    0.135197
    31  H    0.119899
    32  H    0.099277
    33  C   -0.064154
    34  C   -0.034204
    35  C    0.023114
    36  H    0.105752
    37  H    0.116027
    38  C   -0.016152
    39  H    0.121907
    40  H    0.118269
    41  H    0.076855
    42  H    0.109722
    43  H    0.100541
    44  H    0.107206
    45  N    0.025673
    46  O   -0.331815
    47  I   -0.029714
    48  H    0.204243
    49  C   -0.142031
    50  C   -0.183599
    51  C   -0.039604
    52  C   -0.054631
    53  C   -0.143716
    54  C   -0.136600
    55  H    0.153546
    56  H    0.159202
    57  C    0.049494
    58  C   -0.075386
    59  H    0.145483
    60  H    0.152313
    61  C   -0.135755
    62  C   -0.072445
    63  H    0.144617
    64  C    0.110791
    65  C   -0.099255
    66  C   -0.049282
    67  C   -0.107704
    68  C   -0.054933
    69  C   -0.189836
    70  C   -0.093249
    71  C   -0.137440
    72  C   -0.138076
    73  H    0.161906
    74  H    0.145857
    75  C   -0.141638
    76  H    0.146225
    77  H    0.153763
    78  H    0.152570
    79  S    0.906495
    80  O   -0.510008
    81  O   -0.567630
    82  S    0.853437
    83  O   -0.495235
    84  O   -0.527643
    85  N   -0.473976
    86  C    0.132233
    87  C    0.224473
    88  C    0.055027
    89  C    0.193122
    90  C   -0.068953
    91  C   -0.156363
    92  C   -0.206490
    93  C   -0.096239
    94  C   -0.123534
    95  H    0.167101
    96  C   -0.145691
    97  H    0.160128
    98  H    0.160767
    99  H    0.158937
   100  C   -0.069011
   101  C   -0.206860
   102  C   -0.210778
   103  C   -0.124502
   104  H    0.154181
   105  C   -0.073822
   106  C   -0.181409
   107  H    0.163326
   108  H    0.158340
   109  H    0.161722
   110  C    0.567963
   111  F   -0.188561
   112  F   -0.189099
   113  F   -0.191624
   114  C    0.555772
   115  F   -0.186571
   116  F   -0.189527
   117  F   -0.190207
 Sum of Mulliken charges =   0.00000
 Mulliken charges with hydrogens summed into heavy atoms:
               1
     1  C    0.163604
     2  C    0.291353
     3  C   -0.005030
     4  C   -0.021454
     5  C    0.270765
     6  N   -0.287001
     8  C   -0.160309
     9  C    0.120625
    10  C    0.017938
    11  C    0.008861
    12  C    0.021585
    16  C    0.332964
    17  C    0.084718
    18  C   -0.093122
    19  C   -0.058150
    20  C    0.002185
    22  C   -0.000528
    24  C   -0.025051
    28  F   -0.221572
    29  C    0.048713
    33  C    0.157625
    34  C    0.205972
    35  C    0.209691
    38  C    0.191596
    45  N    0.025673
    46  O   -0.331815
    47  I   -0.029714
    49  C    0.011515
    50  C   -0.024397
    51  C   -0.039604
    52  C   -0.054631
    53  C    0.001767
    54  C    0.015713
    57  C    0.049494
    58  C    0.069231
    61  C   -0.135755
    62  C   -0.072445
    64  C    0.110791
    65  C   -0.099255
    66  C   -0.049282
    67  C   -0.107704
    68  C   -0.054933
    69  C   -0.027930
    70  C    0.052608
    71  C    0.008785
    72  C    0.015688
    75  C    0.010932
    79  S    0.906495
    80  O   -0.510008
    81  O   -0.567630
    82  S    0.853437
    83  O   -0.495235
    84  O   -0.527643
    85  N   -0.473976
    86  C    0.132233
    87  C    0.224473
    88  C    0.055027
    89  C    0.193122
    90  C   -0.068953
    91  C   -0.156363
    92  C   -0.039389
    93  C    0.063888
    94  C    0.037233
    96  C    0.013246
   100  C   -0.069011
   101  C   -0.052679
   102  C   -0.210778
   103  C    0.038824
   105  C    0.084518
   106  C   -0.019687
   110  C    0.567963
   111  F   -0.188561
   112  F   -0.189099
   113  F   -0.191624
   114  C    0.555772
   115  F   -0.186571
   116  F   -0.189527
   117  F   -0.190207
 Electronic spatial extent (au):  <R**2>=          69363.2907
 Charge=              0.0000 electrons
 Dipole moment (field-independent basis, Debye):
    X=             11.5529    Y=            -11.9953    Z=              6.4715  Tot=             17.8672
 Quadrupole moment (field-independent basis, Debye-Ang):
   XX=           -457.1972   YY=           -407.1763   ZZ=           -464.7627
   XY=            -22.0734   XZ=              4.7111   YZ=             -5.1406
 Traceless Quadrupole moment (field-independent basis, Debye-Ang):
   XX=            -14.1518   YY=             35.8691   ZZ=            -21.7173
   XY=            -22.0734   XZ=              4.7111   YZ=             -5.1406
 Octapole moment (field-independent basis, Debye-Ang**2):
  XXX=            489.6820  YYY=            -85.6102  ZZZ=             -4.1935  XYY=           -180.5557
  XXY=           -125.7603  XXZ=             43.0736  XZZ=            -15.3620  YZZ=            -68.8802
  YYZ=            -16.6652  XYZ=           -160.9039
 Hexadecapole moment (field-independent basis, Debye-Ang**3):
 XXXX=         -50113.2837 YYYY=         -28995.4592 ZZZZ=         -10025.7004 XXXY=            362.2685
 XXXZ=            678.2716 YYYX=            866.1038 YYYZ=           -275.0301 ZZZX=           -283.2633
 ZZZY=            192.7194 XXYY=         -13065.9326 XXZZ=          -9976.7100 YYZZ=          -6525.8487
 XXYZ=            389.7606 YYXZ=            255.3088 ZZXY=            432.8479
 N-N= 1.527307658445D+04 E-N=-4.137387395053D+04  KE= 4.441806182213D+03
 Leave Link  601 at Wed Jun 12 04:25:48 2024, MaxMem=  8589934592 cpu:              30.4 elap:               1.6
 (Enter /opt/packages/gaussian/g16RevC.01/g16/l9999.exe)
 Unable to Open any file for archive entry.
 1\1\GINC-R013\SP\RB3LYP\def2TZVPP\C60H39F7I1N3O5S2\BIM2\12-Jun-2024\0\
 \#p b3lyp def2tzvpp scf=maxcycle=128 nosymm scrf=(smd,solvent=propylet
 hanoate) empiricaldispersion=gd3bj\\Title Card Required\\0,1\C,0,2.041
 582,-1.737181,-0.481651\C,0,0.653415,-1.923286,-1.002919\C,0,-0.301811
 ,-2.539558,-0.046047\C,0,0.120279,-2.868306,1.196546\C,0,1.511973,-2.7
 05147,1.55104\N,0,2.405887,-2.124128,0.690264\H,0,-0.596869,-3.268328,
 1.908299\C,0,3.086573,-1.065076,-1.299202\C,0,4.432891,-1.516621,-1.31
 2013\C,0,5.402384,-0.736314,-1.950763\C,0,3.753215,0.89809,-2.60619\C,
 0,5.071647,0.462913,-2.580824\H,0,6.432505,-1.094033,-1.978574\H,0,5.8
 47864,1.056573,-3.066051\H,0,3.449408,1.830447,-3.082047\C,0,2.789378,
 0.126707,-1.973725\C,0,4.864526,-2.818845,-0.724653\C,0,6.051549,-2.89
 4252,0.016409\C,0,4.144598,-4.001587,-0.951841\C,0,6.490351,-4.109951,
 0.544247\H,0,6.633959,-1.988322,0.187993\C,0,4.585035,-5.215979,-0.432
 838\H,0,3.236348,-3.972659,-1.557287\C,0,5.757736,-5.274932,0.324387\H
 ,0,7.414237,-4.143956,1.124649\H,0,4.013834,-6.125055,-0.629823\H,0,6.
 101455,-6.227026,0.732571\F,0,1.535985,0.578331,-1.994246\C,0,-1.71869
 8,-2.741362,-0.4736\H,0,-2.066336,-1.887223,-1.072317\H,0,-1.792915,-3
 .648298,-1.095186\H,0,-2.373585,-2.862956,0.398947\C,0,1.241328,-3.683
 898,3.807723\C,0,3.442203,-3.008792,3.031959\C,0,1.839681,-5.040687,4.
 165441\H,0,0.185905,-3.787992,3.548988\H,0,1.327361,-3.002316,4.667791
 \C,0,3.938127,-4.396508,3.421617\H,0,3.991363,-2.627236,2.165824\H,0,3
 .550549,-2.316552,3.881311\H,0,1.700624,-5.735204,3.315008\H,0,1.31473
 4,-5.447626,5.03913\H,0,3.876045,-5.063208,2.540913\H,0,4.987947,-4.33
 1321,3.736522\N,0,2.009136,-3.090513,2.710829\O,0,3.198258,-4.92493,4.
 492472\I,0,0.717671,-3.013984,-2.871164\H,0,0.234871,-0.954444,-1.3178
 93\C,0,-2.722165,6.808163,-1.167484\C,0,-2.763666,5.545216,-0.626536\C
 ,0,-1.563497,4.825417,-0.367977\C,0,-0.322302,5.434958,-0.706938\C,0,-
 0.308765,6.74836,-1.254601\C,0,-1.483123,7.422486,-1.477357\H,0,-3.653
 214,7.341368,-1.365906\H,0,-3.726184,5.083226,-0.405787\C,0,-1.564389,
 3.502735,0.187531\C,0,0.880031,4.720691,-0.500425\H,0,0.653935,7.20100
 9,-1.500084\H,0,-1.468313,8.427556,-1.9018\C,0,0.876177,3.427732,-0.01
 0424\C,0,-0.372673,2.809553,0.322287\H,0,1.833151,5.197398,-0.73676\C,
 0,-2.878268,2.901429,0.601014\C,0,-3.415454,1.79869,-0.037724\C,0,-3.5
 45081,3.460104,1.743527\C,0,-4.619722,1.184674,0.435038\C,0,-4.782381,
 2.89409,2.16619\C,0,-3.010465,4.54619,2.493272\C,0,-5.291706,1.756432,
 1.498997\C,0,-5.468098,3.450352,3.282401\C,0,-3.689617,5.057125,3.5736
 73\H,0,-2.047376,4.972627,2.213388\H,0,-6.218332,1.300413,1.852091\C,0
 ,-4.93704,4.513211,3.968585\H,0,-6.41865,3.005729,3.583653\H,0,-3.2607
 18,5.887899,4.136172\H,0,-5.46505,4.934481,4.825483\S,0,-0.490115,1.06
 4487,0.729335\O,0,-1.276811,0.974144,1.923336\O,0,0.820097,0.481858,0.
 802007\S,0,-2.415456,1.070838,-1.334084\O,0,-2.021463,2.149403,-2.1888
 92\O,0,-3.120612,-0.002249,-1.968467\N,0,-1.2042,0.442133,-0.534344\C,
 0,2.14884,2.803004,0.193063\C,0,3.265157,2.36856,0.384114\C,0,-5.13960
 8,-0.036908,-0.102879\C,0,-5.585012,-1.096969,-0.489175\C,0,-5.963187,
 -2.355228,-1.057999\C,0,-7.036553,-3.123671,-0.567242\C,0,-5.218525,-2
 .842357,-2.144582\C,0,-7.352875,-4.346966,-1.150709\C,0,-5.539614,-4.0
 67369,-2.722538\H,0,-4.392428,-2.233954,-2.517553\C,0,-6.604408,-4.820
 626,-2.228481\H,0,-8.187066,-4.93052,-0.760853\H,0,-4.954754,-4.434388
 ,-3.567378\H,0,-6.857392,-5.779621,-2.682262\C,0,4.517672,1.753975,0.6
 99542\C,0,4.509898,0.561411,1.441403\C,0,5.753023,2.309152,0.312905\C,
 0,5.708293,-0.043536,1.807524\H,0,3.546912,0.128725,1.719957\C,0,6.947
 567,1.687768,0.666163\C,0,6.926873,0.514396,1.419747\H,0,5.690604,-0.9
 61966,2.397301\H,0,7.896422,2.128541,0.360261\H,0,7.866275,0.037994,1.
 704264\C,0,5.773915,3.589719,-0.480495\F,0,7.019271,3.984614,-0.754828
 \F,0,5.179618,4.592946,0.173303\F,0,5.138397,3.468973,-1.652249\C,0,-7
 .838612,-2.608496,0.598739\F,0,-8.817967,-3.448486,0.9411\F,0,-8.40929
 5,-1.429744,0.330804\F,0,-7.079739,-2.428932,1.685331\\Version=ES64L-G
 16RevC.01\HF=-4645.0158483\RMSD=2.659e-09\Dipole=4.5452537,-4.719304,2
 .5460822\Quadrupole=-10.5214961,26.667794,-16.146298,-16.4110136,3.502
 6097,-3.8219175\PG=C01 [X(C60H39F7I1N3O5S2)]\\@
 The archive entry for this job was punched.


 ERROR IS THE FORCE THAT WELDS MEN TOGETHER....
 TRUTH IS COMMUNICATED TO MEN ONLY BY DEEDS OF TRUTH.
           TOLSTOI,MY RELIGION
 Job cpu time:       1 days 21 hours 15 minutes 37.5 seconds.
 Elapsed time:       0 days  1 hours 26 minutes 33.0 seconds.
 File lengths (MBytes):  RWF=   5950 Int=      0 D2E=      0 Chk=    522 Scr=      1
 Normal termination of Gaussian 16 at Wed Jun 12 04:25:49 2024.
