 Entering Gaussian System, Link 0=g16
 Initial command:
 /ihome/crc/install/gaussian/c01/avx2/tar/g16/l1.exe "/scratch/slurm-18109278/Gau-60874.inp" -scrdir="/scratch/slurm-18109278/"
 Entering Link 1 = /ihome/crc/install/gaussian/c01/avx2/tar/g16/l1.exe PID=     60875.
  
 Copyright (c) 1988-2019, Gaussian, Inc.  All Rights Reserved.
  
 This is part of the Gaussian(R) 16 program.  It is based on
 the Gaussian(R) 09 system (copyright 2009, Gaussian, Inc.),
 the Gaussian(R) 03 system (copyright 2003, Gaussian, Inc.),
 the Gaussian(R) 98 system (copyright 1998, Gaussian, Inc.),
 the Gaussian(R) 94 system (copyright 1995, Gaussian, Inc.),
 the Gaussian 92(TM) system (copyright 1992, Gaussian, Inc.),
 the Gaussian 90(TM) system (copyright 1990, Gaussian, Inc.),
 the Gaussian 88(TM) system (copyright 1988, Gaussian, Inc.),
 the Gaussian 86(TM) system (copyright 1986, Carnegie Mellon
 University), and the Gaussian 82(TM) system (copyright 1983,
 Carnegie Mellon University). Gaussian is a federally registered
 trademark of Gaussian, Inc.
  
 This software contains proprietary and confidential information,
 including trade secrets, belonging to Gaussian, Inc.
  
 This software is provided under written license and may be
 used, copied, transmitted, or stored only in accord with that
 written license.
  
 The following legend is applicable only to US Government
 contracts under FAR:
  
                    RESTRICTED RIGHTS LEGEND
  
 Use, reproduction and disclosure by the US Government is
 subject to restrictions as set forth in subparagraphs (a)
 and (c) of the Commercial Computer Software - Restricted
 Rights clause in FAR 52.227-19.
  
 Gaussian, Inc.
 340 Quinnipiac St., Bldg. 40, Wallingford CT 06492
  
  
 ---------------------------------------------------------------
 Warning -- This program may not be used in any manner that
 competes with the business of Gaussian, Inc. or will provide
 assistance to any competitor of Gaussian, Inc.  The licensee
 of this program is prohibited from giving any competitor of
 Gaussian, Inc. access to this program.  By using this program,
 the user acknowledges that Gaussian, Inc. is engaged in the
 business of creating and licensing software in the field of
 computational chemistry and represents and warrants to the
 licensee that it is not a competitor of Gaussian, Inc. and that
 it will not use this program in any manner prohibited above.
 ---------------------------------------------------------------
  

 Cite this work as:
 Gaussian 16, Revision C.01,
 M. J. Frisch, G. W. Trucks, H. B. Schlegel, G. E. Scuseria, 
 M. A. Robb, J. R. Cheeseman, G. Scalmani, V. Barone, 
 G. A. Petersson, H. Nakatsuji, X. Li, M. Caricato, A. V. Marenich, 
 J. Bloino, B. G. Janesko, R. Gomperts, B. Mennucci, H. P. Hratchian, 
 J. V. Ortiz, A. F. Izmaylov, J. L. Sonnenberg, D. Williams-Young, 
 F. Ding, F. Lipparini, F. Egidi, J. Goings, B. Peng, A. Petrone, 
 T. Henderson, D. Ranasinghe, V. G. Zakrzewski, J. Gao, N. Rega, 
 G. Zheng, W. Liang, M. Hada, M. Ehara, K. Toyota, R. Fukuda, 
 J. Hasegawa, M. Ishida, T. Nakajima, Y. Honda, O. Kitao, H. Nakai, 
 T. Vreven, K. Throssell, J. A. Montgomery, Jr., J. E. Peralta, 
 F. Ogliaro, M. J. Bearpark, J. J. Heyd, E. N. Brothers, K. N. Kudin, 
 V. N. Staroverov, T. A. Keith, R. Kobayashi, J. Normand, 
 K. Raghavachari, A. P. Rendell, J. C. Burant, S. S. Iyengar, 
 J. Tomasi, M. Cossi, J. M. Millam, M. Klene, C. Adamo, R. Cammi, 
 J. W. Ochterski, R. L. Martin, K. Morokuma, O. Farkas, 
 J. B. Foresman, and D. J. Fox, Gaussian, Inc., Wallingford CT, 2019.
 
 ******************************************
 Gaussian 16:  ES64L-G16RevC.01  3-Jul-2019
                26-Feb-2025 
 ******************************************
 %nprocshared=24
 Will use up to   24 processors via shared memory.
 %mem=32GB
 ----------------------------------------------------------------------
 #p b3lyp def2tzvpp scf=maxcycle=128 nosymm scrf=(smd,solvent=propyleth
 anoate) empiricaldispersion=gd3bj
 ----------------------------------------------------------------------
 1/38=1,172=1/1;
 2/12=2,15=1,17=6,18=5,40=1/2;
 3/5=44,7=202,11=2,25=1,30=1,70=32201,72=169,74=-5,124=41/1,2,3;
 4//1;
 5/5=2,7=128,38=5,53=169/2;
 6/7=2,8=2,9=2,10=2,28=1/1;
 99/5=1,9=1/99;
 Leave Link    1 at Wed Feb 26 21:20:45 2025, MaxMem=  4294967296 cpu:               0.9 elap:               0.1
 (Enter /ihome/crc/install/gaussian/c01/avx2/tar/g16/l101.exe)
 ---------
 NIH_pre_2
 ---------
 Symbolic Z-matrix:
 Charge =  0 Multiplicity = 1
 N                    -1.18326  -6.99169  -5.25395 
 C                    -0.25106  -7.39123  -4.39345 
 C                    -0.81453  -8.06646  -3.14841 
 C                    -2.31456  -7.89925  -3.33865 
 C                    -2.42918  -7.27991  -4.74181 
 O                    -3.48401  -7.05626  -5.29825 
 O                     0.97956  -7.22448  -4.55727 
 H                    -0.47999  -9.1142   -3.12887 
 H                    -0.40288  -7.57246  -2.25631 
 H                    -2.76466  -7.19621  -2.62159 
 H                    -2.89481  -8.83083  -3.29626 
 C                     0.87867  -3.99617  -5.1047 
 C                     0.82492  -2.69807  -5.53903 
 C                     0.93359  -2.43691  -6.92475 
 C                     1.09133  -3.49241  -7.79603 
 C                     1.16027  -4.83432  -7.32231 
 N                     1.07016  -5.02074  -5.98196 
 H                     1.14538  -3.28653  -8.86026 
 C                     0.70645  -4.35086  -3.67002 
 C                    -0.46269  -4.0354   -2.94761 
 C                    -0.51799  -4.35863  -1.58297 
 C                     1.7079   -5.30125  -1.65346 
 C                     0.55145  -4.98172  -0.9446 
 H                    -1.42761  -4.13107  -1.02511 
 H                     0.48215  -5.22907   0.11579 
 H                     2.56424  -5.79133  -1.18994 
 C                     1.7565   -4.98086  -2.99973 
 C                    -1.63681  -3.37369  -3.58495 
 C                    -2.2372   -2.27145  -2.96051 
 C                    -2.1744   -3.84778  -4.79101 
 C                    -3.34472  -1.64775  -3.53439 
 H                    -1.82164  -1.89014  -2.02515 
 C                    -3.28798  -3.22926  -5.35541 
 H                    -1.73605  -4.72416  -5.27481 
 C                    -3.87356  -2.12564  -4.73337 
 H                    -3.79568  -0.78483  -3.04109 
 H                    -3.7062   -3.62539  -6.28232 
 H                    -4.74473  -1.64244  -5.17935 
 F                     2.8627   -5.25862  -3.69237 
 C                     0.84357  -1.02519  -7.41869 
 H                    -0.14399  -0.60738  -7.17119 
 H                     1.59568  -0.39889  -6.91726 
 H                     0.99326  -0.96339  -8.50328 
 C                     1.12385  -7.29063  -7.74283 
 C                     1.34137  -5.78516  -9.59831 
 C                    -0.16306  -7.81544  -8.36916 
 H                     1.09496  -7.41262  -6.65744 
 H                     1.98267  -7.86176  -8.12987 
 C                     0.04661  -6.35106  -10.17144 
 H                     1.50311  -4.75859  -9.93474 
 H                     2.18888  -6.39111  -9.95502 
 H                    -1.01974  -7.2687   -7.9348 
 H                    -0.28136  -8.8832   -8.13979 
 H                    -0.80323  -5.72479  -9.83628 
 H                     0.08168  -6.33389  -11.26939 
 N                     1.3108   -5.89275  -8.14054 
 O                    -0.13586  -7.68525  -9.77346 
 H                     0.6708   -1.89239  -4.82172 
 H                     1.08817  -5.99855  -5.5198 
 
 ITRead=  0  0  0  0  0  0  0  0  0  0  0  0  0  0  0  0  0  0  0  0
 ITRead=  0  0  0  0  0  0  0  0  0  0  0  0  0  0  0  0  0  0  0  0
 ITRead=  0  0  0  0  0  0  0  0  0  0  0  0  0  0  0  0  0  0  0
 MicOpt= -1 -1 -1 -1 -1 -1 -1 -1 -1 -1 -1 -1 -1 -1 -1 -1 -1 -1 -1 -1
 MicOpt= -1 -1 -1 -1 -1 -1 -1 -1 -1 -1 -1 -1 -1 -1 -1 -1 -1 -1 -1 -1
 MicOpt= -1 -1 -1 -1 -1 -1 -1 -1 -1 -1 -1 -1 -1 -1 -1 -1 -1 -1 -1
 NAtoms=     59 NQM=       59 NQMF=       0 NMMI=      0 NMMIF=      0
                NMic=       0 NMicF=      0.
                    Isotopes and Nuclear Properties:
 (Nuclear quadrupole moments (NQMom) in fm**2, nuclear magnetic moments (NMagM)
  in nuclear magnetons)

  Atom         1           2           3           4           5           6           7           8           9          10
 IAtWgt=          14          12          12          12          12          16          16           1           1           1
 AtmWgt=  14.0030740  12.0000000  12.0000000  12.0000000  12.0000000  15.9949146  15.9949146   1.0078250   1.0078250   1.0078250
 NucSpn=           2           0           0           0           0           0           0           1           1           1
 AtZEff=  -0.0000000  -0.0000000  -0.0000000  -0.0000000  -0.0000000  -0.0000000  -0.0000000  -0.0000000  -0.0000000  -0.0000000
 NQMom=    2.0440000   0.0000000   0.0000000   0.0000000   0.0000000   0.0000000   0.0000000   0.0000000   0.0000000   0.0000000
 NMagM=    0.4037610   0.0000000   0.0000000   0.0000000   0.0000000   0.0000000   0.0000000   2.7928460   2.7928460   2.7928460
 AtZNuc=   7.0000000   6.0000000   6.0000000   6.0000000   6.0000000   8.0000000   8.0000000   1.0000000   1.0000000   1.0000000

  Atom        11          12          13          14          15          16          17          18          19          20
 IAtWgt=           1          12          12          12          12          12          14           1          12          12
 AtmWgt=   1.0078250  12.0000000  12.0000000  12.0000000  12.0000000  12.0000000  14.0030740   1.0078250  12.0000000  12.0000000
 NucSpn=           1           0           0           0           0           0           2           1           0           0
 AtZEff=  -0.0000000  -0.0000000  -0.0000000  -0.0000000  -0.0000000  -0.0000000  -0.0000000  -0.0000000  -0.0000000  -0.0000000
 NQMom=    0.0000000   0.0000000   0.0000000   0.0000000   0.0000000   0.0000000   2.0440000   0.0000000   0.0000000   0.0000000
 NMagM=    2.7928460   0.0000000   0.0000000   0.0000000   0.0000000   0.0000000   0.4037610   2.7928460   0.0000000   0.0000000
 AtZNuc=   1.0000000   6.0000000   6.0000000   6.0000000   6.0000000   6.0000000   7.0000000   1.0000000   6.0000000   6.0000000

  Atom        21          22          23          24          25          26          27          28          29          30
 IAtWgt=          12          12          12           1           1           1          12          12          12          12
 AtmWgt=  12.0000000  12.0000000  12.0000000   1.0078250   1.0078250   1.0078250  12.0000000  12.0000000  12.0000000  12.0000000
 NucSpn=           0           0           0           1           1           1           0           0           0           0
 AtZEff=  -0.0000000  -0.0000000  -0.0000000  -0.0000000  -0.0000000  -0.0000000  -0.0000000  -0.0000000  -0.0000000  -0.0000000
 NQMom=    0.0000000   0.0000000   0.0000000   0.0000000   0.0000000   0.0000000   0.0000000   0.0000000   0.0000000   0.0000000
 NMagM=    0.0000000   0.0000000   0.0000000   2.7928460   2.7928460   2.7928460   0.0000000   0.0000000   0.0000000   0.0000000
 AtZNuc=   6.0000000   6.0000000   6.0000000   1.0000000   1.0000000   1.0000000   6.0000000   6.0000000   6.0000000   6.0000000

  Atom        31          32          33          34          35          36          37          38          39          40
 IAtWgt=          12           1          12           1          12           1           1           1          19          12
 AtmWgt=  12.0000000   1.0078250  12.0000000   1.0078250  12.0000000   1.0078250   1.0078250   1.0078250  18.9984032  12.0000000
 NucSpn=           0           1           0           1           0           1           1           1           1           0
 AtZEff=  -0.0000000  -0.0000000  -0.0000000  -0.0000000  -0.0000000  -0.0000000  -0.0000000  -0.0000000  -0.0000000  -0.0000000
 NQMom=    0.0000000   0.0000000   0.0000000   0.0000000   0.0000000   0.0000000   0.0000000   0.0000000   0.0000000   0.0000000
 NMagM=    0.0000000   2.7928460   0.0000000   2.7928460   0.0000000   2.7928460   2.7928460   2.7928460   2.6288670   0.0000000
 AtZNuc=   6.0000000   1.0000000   6.0000000   1.0000000   6.0000000   1.0000000   1.0000000   1.0000000   9.0000000   6.0000000

  Atom        41          42          43          44          45          46          47          48          49          50
 IAtWgt=           1           1           1          12          12          12           1           1          12           1
 AtmWgt=   1.0078250   1.0078250   1.0078250  12.0000000  12.0000000  12.0000000   1.0078250   1.0078250  12.0000000   1.0078250
 NucSpn=           1           1           1           0           0           0           1           1           0           1
 AtZEff=  -0.0000000  -0.0000000  -0.0000000  -0.0000000  -0.0000000  -0.0000000  -0.0000000  -0.0000000  -0.0000000  -0.0000000
 NQMom=    0.0000000   0.0000000   0.0000000   0.0000000   0.0000000   0.0000000   0.0000000   0.0000000   0.0000000   0.0000000
 NMagM=    2.7928460   2.7928460   2.7928460   0.0000000   0.0000000   0.0000000   2.7928460   2.7928460   0.0000000   2.7928460
 AtZNuc=   1.0000000   1.0000000   1.0000000   6.0000000   6.0000000   6.0000000   1.0000000   1.0000000   6.0000000   1.0000000

  Atom        51          52          53          54          55          56          57          58          59
 IAtWgt=           1           1           1           1           1          14          16           1           1
 AtmWgt=   1.0078250   1.0078250   1.0078250   1.0078250   1.0078250  14.0030740  15.9949146   1.0078250   1.0078250
 NucSpn=           1           1           1           1           1           2           0           1           1
 AtZEff=  -0.0000000  -0.0000000  -0.0000000  -0.0000000  -0.0000000  -0.0000000  -0.0000000  -0.0000000  -0.0000000
 NQMom=    0.0000000   0.0000000   0.0000000   0.0000000   0.0000000   2.0440000   0.0000000   0.0000000   0.0000000
 NMagM=    2.7928460   2.7928460   2.7928460   2.7928460   2.7928460   0.4037610   0.0000000   2.7928460   2.7928460
 AtZNuc=   1.0000000   1.0000000   1.0000000   1.0000000   1.0000000   7.0000000   8.0000000   1.0000000   1.0000000
 Leave Link  101 at Wed Feb 26 21:20:45 2025, MaxMem=  4294967296 cpu:               1.6 elap:               0.1
 (Enter /ihome/crc/install/gaussian/c01/avx2/tar/g16/l202.exe)
 Symmetry turned off by external request.
 Stoichiometry    C26H26FN3O3
 Framework group  C1[X(C26H26FN3O3)]
 Deg. of freedom   171
 Full point group                 C1      NOp   1
                          Input orientation:                          
 ---------------------------------------------------------------------
 Center     Atomic      Atomic             Coordinates (Angstroms)
 Number     Number       Type             X           Y           Z
 ---------------------------------------------------------------------
      1          7           0       -1.183259   -6.991691   -5.253954
      2          6           0       -0.251057   -7.391225   -4.393446
      3          6           0       -0.814526   -8.066464   -3.148411
      4          6           0       -2.314557   -7.899246   -3.338647
      5          6           0       -2.429175   -7.279907   -4.741809
      6          8           0       -3.484009   -7.056261   -5.298253
      7          8           0        0.979562   -7.224476   -4.557271
      8          1           0       -0.479987   -9.114196   -3.128871
      9          1           0       -0.402876   -7.572461   -2.256313
     10          1           0       -2.764664   -7.196210   -2.621590
     11          1           0       -2.894809   -8.830831   -3.296257
     12          6           0        0.878668   -3.996167   -5.104703
     13          6           0        0.824917   -2.698073   -5.539031
     14          6           0        0.933587   -2.436906   -6.924752
     15          6           0        1.091327   -3.492414   -7.796029
     16          6           0        1.160266   -4.834317   -7.322315
     17          7           0        1.070161   -5.020737   -5.981958
     18          1           0        1.145376   -3.286528   -8.860259
     19          6           0        0.706451   -4.350855   -3.670015
     20          6           0       -0.462692   -4.035396   -2.947605
     21          6           0       -0.517992   -4.358633   -1.582965
     22          6           0        1.707904   -5.301247   -1.653455
     23          6           0        0.551452   -4.981720   -0.944596
     24          1           0       -1.427606   -4.131066   -1.025107
     25          1           0        0.482149   -5.229070    0.115785
     26          1           0        2.564238   -5.791330   -1.189941
     27          6           0        1.756496   -4.980855   -2.999727
     28          6           0       -1.636808   -3.373694   -3.584949
     29          6           0       -2.237197   -2.271454   -2.960506
     30          6           0       -2.174402   -3.847779   -4.791005
     31          6           0       -3.344721   -1.647745   -3.534390
     32          1           0       -1.821641   -1.890142   -2.025155
     33          6           0       -3.287977   -3.229264   -5.355409
     34          1           0       -1.736048   -4.724158   -5.274807
     35          6           0       -3.873555   -2.125636   -4.733371
     36          1           0       -3.795676   -0.784833   -3.041089
     37          1           0       -3.706197   -3.625392   -6.282323
     38          1           0       -4.744730   -1.642439   -5.179346
     39          9           0        2.862698   -5.258622   -3.692373
     40          6           0        0.843571   -1.025191   -7.418690
     41          1           0       -0.143993   -0.607376   -7.171185
     42          1           0        1.595678   -0.398886   -6.917263
     43          1           0        0.993258   -0.963388   -8.503275
     44          6           0        1.123850   -7.290625   -7.742834
     45          6           0        1.341368   -5.785164   -9.598309
     46          6           0       -0.163060   -7.815444   -8.369163
     47          1           0        1.094963   -7.412617   -6.657439
     48          1           0        1.982666   -7.861756   -8.129871
     49          6           0        0.046606   -6.351055  -10.171443
     50          1           0        1.503112   -4.758591   -9.934739
     51          1           0        2.188881   -6.391113   -9.955016
     52          1           0       -1.019740   -7.268695   -7.934800
     53          1           0       -0.281356   -8.883195   -8.139789
     54          1           0       -0.803229   -5.724793   -9.836277
     55          1           0        0.081681   -6.333893  -11.269392
     56          7           0        1.310804   -5.892753   -8.140544
     57          8           0       -0.135859   -7.685245   -9.773464
     58          1           0        0.670796   -1.892392   -4.821716
     59          1           0        1.088172   -5.998552   -5.519795
 ---------------------------------------------------------------------
 Rotational constants (GHZ):           0.1662750           0.1202561           0.1097650
 Leave Link  202 at Wed Feb 26 21:20:46 2025, MaxMem=  4294967296 cpu:               0.3 elap:               0.0
 (Enter /ihome/crc/install/gaussian/c01/avx2/tar/g16/l301.exe)
 Standard basis: def2TZVPP (5D, 7F)
 Ernie: Thresh=  0.10000D-02 Tol=  0.10000D-05 Strict=F.
  1387 basis functions,  2125 primitive gaussians,  1578 cartesian basis functions
   118 alpha electrons      118 beta electrons
       nuclear repulsion energy      3598.9794909570 Hartrees.
 IExCor=  402 DFT=T Ex+Corr=B3LYP ExCW=0 ScaHFX=  0.200000
 ScaDFX=  0.800000  0.720000  1.000000  0.810000 ScalE2=  1.000000  1.000000
 IRadAn=      5 IRanWt=     -1 IRanGd=            0 ICorTp=0 IEmpDi=141
 NAtoms=   59 NActive=   59 NUniq=   59 SFac= 1.00D+00 NAtFMM=   60 NAOKFM=F Big=F
 Integral buffers will be    131072 words long.
 Raffenetti 2 integral format.
 Two-electron integral symmetry is turned off.
 R6Disp:  Grimme-D3(BJ) Dispersion energy=       -0.1492862697 Hartrees.
 Nuclear repulsion after empirical dispersion term =     3598.8302046873 Hartrees.
 ------------------------------------------------------------------------------
 Polarizable Continuum Model (PCM)
 =================================
 Model                : PCM.
 Atomic radii         : SMD-Coulomb.
 Polarization charges : Total charges.
 Charge compensation  : None.
 Solution method      : On-the-fly selection.
 Cavity type          : VdW (van der Waals Surface) (Alpha=1.000).
 Cavity algorithm     : GePol (No added spheres)
                        Default sphere list used, NSphG=   59.
                        Lebedev-Laikov grids with approx.  5.0 points / Ang**2.
                        Smoothing algorithm: York/Karplus (Gamma=1.0000).
                        Polarization charges: spherical gaussians, with
                                              point-specific exponents (IZeta= 3).
                        Self-potential: point-specific (ISelfS= 7).
                        Self-field    : sphere-specific E.n sum rule (ISelfD= 2).
 Solvent              : PropylEthanoate, Eps=   5.520500 Eps(inf)=   1.916010
 ------------------------------------------------------------------------------
 GePol: Number of generator spheres                  =      59
 GePol: Total number of spheres                      =      59
 GePol: Number of exposed spheres                    =      58 ( 98.31%)
 GePol: Number of points                             =    4204
 GePol: Average weight of points                     =       0.11
 GePol: Minimum weight of points                     =   0.22D-10
 GePol: Maximum weight of points                     =    0.21501
 GePol: Number of points with low weight             =     286
 GePol: Fraction of low-weight points (<1% of avg)   =       6.80%
 GePol: Cavity surface area                          =    467.423 Ang**2
 GePol: Cavity volume                                =    493.175 Ang**3
 ------------------------------------------------------------------------------
 Atomic radii for non-electrostatic terms: SMD-CDS.
 ------------------------------------------------------------------------------
 PCM non-electrostatic energy =        -0.0143953887 Hartrees.
 Nuclear repulsion after PCM non-electrostatic terms =     3598.8158092986 Hartrees.
 Leave Link  301 at Wed Feb 26 21:20:46 2025, MaxMem=  4294967296 cpu:               1.2 elap:               0.1
 (Enter /ihome/crc/install/gaussian/c01/avx2/tar/g16/l302.exe)
 NPDir=0 NMtPBC=     1 NCelOv=     1 NCel=       1 NClECP=     1 NCelD=      1
         NCelK=      1 NCelE2=     1 NClLst=     1 CellRange=     0.0.
 One-electron integrals computed using PRISM.
   1 Symmetry operations used in ECPInt.
 ECPInt:  NShTT=  134940 NPrTT=  377950 LenC2=  111967 LenP2D=  219901.
 LDataN:  DoStor=T MaxTD1= 6 Len=  172
 NBasis=  1387 RedAO= T EigKep=  5.84D-06  NBF=  1387
 NBsUse=  1387 1.00D-06 EigRej= -1.00D+00 NBFU=  1387
 Precomputing XC quadrature grid using
 IXCGrd= 4 IRadAn=           5 IRanWt=          -1 IRanGd=           0 AccXCQ= 0.00D+00.
 Generated NRdTot=       0 NPtTot=           0 NUsed=           0 NTot=          32
 NSgBfM=  1554  1543  1545  1548  1554 MxSgAt=    59 MxSgA2=    59.
 Leave Link  302 at Wed Feb 26 21:20:48 2025, MaxMem=  4294967296 cpu:              58.8 elap:               2.8
 (Enter /ihome/crc/install/gaussian/c01/avx2/tar/g16/l303.exe)
 DipDrv:  MaxL=1.
 Leave Link  303 at Wed Feb 26 21:20:49 2025, MaxMem=  4294967296 cpu:               3.7 elap:               0.2
 (Enter /ihome/crc/install/gaussian/c01/avx2/tar/g16/l401.exe)
 ExpMin= 9.52D-02 ExpMax= 3.55D+04 ExpMxC= 1.21D+03 IAcc=3 IRadAn=         5 AccDes= 0.00D+00
 Harris functional with IExCor=  402 and IRadAn=       5 diagonalized for initial guess.
 HarFok:  IExCor=  402 AccDes= 0.00D+00 IRadAn=         5 IDoV= 1 UseB2=F ITyADJ=14
 ICtDFT=  3500011 ScaDFX=  1.000000  1.000000  1.000000  1.000000
 FoFCou: FMM=F IPFlag=           0 FMFlag=      100000 FMFlg1=           0
         NFxFlg=           0 DoJE=T BraDBF=F KetDBF=T FulRan=T
         wScrn=  0.000000 ICntrl=       500 IOpCl=  0 I1Cent=   200000004 NGrid=           0
         NMat0=    1 NMatS0=      1 NMatT0=    0 NMatD0=    1 NMtDS0=    0 NMtDT0=    0
 Symmetry not used in FoFCou.
 Harris En= -1496.99379202219    
 JPrj=0 DoOrth=F DoCkMO=F.
 Leave Link  401 at Wed Feb 26 21:20:52 2025, MaxMem=  4294967296 cpu:              81.7 elap:               3.5
 (Enter /ihome/crc/install/gaussian/c01/avx2/tar/g16/l502.exe)
 Two-electron integral symmetry not used.
 Closed shell SCF:
 Using DIIS extrapolation, IDIIS=  1040.
 NGot=  4294967296 LenX=  4289938014 LenY=  4287446352
 Requested convergence on RMS density matrix=1.00D-08 within 128 cycles.
 Requested convergence on MAX density matrix=1.00D-06.
 Requested convergence on             energy=1.00D-06.
 No special actions if energy rises.
 Fock matrices will be formed incrementally for  20 cycles.

 Cycle   1  Pass 1  IDiag  1:
 FoFJK:  IHMeth= 1 ICntrl=       0 DoSepK=F KAlg= 0 I1Cent=           0 FoldK=F
 IRaf= 740000000 NMat=       1 IRICut=       1 DoRegI=T DoRafI=F ISym2E= 0 IDoP0=0 IntGTp=1.
 FoFCou: FMM=F IPFlag=           0 FMFlag=      100000 FMFlg1=           0
         NFxFlg=           0 DoJE=F BraDBF=F KetDBF=F FulRan=T
         wScrn=  0.000000 ICntrl=         0 IOpCl=  0 I1Cent=           0 NGrid=           0
         NMat0=    1 NMatS0=      1 NMatT0=    0 NMatD0=    1 NMtDS0=    0 NMtDT0=    0
 Symmetry not used in FoFCou.
 Inv3:  Mode=1 IEnd=    53020848.
 Iteration    1 A*A^-1 deviation from unit magnitude is 3.55D-15 for   1202.
 Iteration    1 A*A^-1 deviation from orthogonality  is 3.00D-15 for   2280   1738.
 Iteration    1 A^-1*A deviation from unit magnitude is 4.11D-15 for   1202.
 Iteration    1 A^-1*A deviation from orthogonality  is 2.30D-13 for   1526   1487.
 E= -1496.18440647226    
 DIIS: error= 1.45D-02 at cycle   1 NSaved=   1.
 NSaved= 1 IEnMin= 1 EnMin= -1496.18440647226     IErMin= 1 ErrMin= 1.45D-02
 ErrMax= 1.45D-02  0.00D+00 EMaxC= 1.00D-01 BMatC= 9.12D-01 BMatP= 9.12D-01
 IDIUse=3 WtCom= 8.55D-01 WtEn= 1.45D-01
 Coeff-Com:  0.100D+01
 Coeff-En:   0.100D+01
 Coeff:      0.100D+01
 Gap=     0.203 Goal=   None    Shift=    0.000
 GapD=    0.203 DampG=1.000 DampE=0.500 DampFc=0.5000 IDamp=-1.
 Damping current iteration by 5.00D-01
 RMSDP=4.35D-03 MaxDP=1.77D+00              OVMax= 2.06D-01

 Cycle   2  Pass 1  IDiag  1:
 RMSU=  2.18D-03    CP:  1.02D+00
 E= -1496.49503221835     Delta-E=       -0.310625746090 Rises=F Damp=T
 DIIS: error= 3.72D-03 at cycle   2 NSaved=   2.
 NSaved= 2 IEnMin= 2 EnMin= -1496.49503221835     IErMin= 2 ErrMin= 3.72D-03
 ErrMax= 3.72D-03  0.00D+00 EMaxC= 1.00D-01 BMatC= 8.60D-02 BMatP= 9.12D-01
 IDIUse=3 WtCom= 9.63D-01 WtEn= 3.72D-02
 Coeff-Com:  0.102D+00 0.898D+00
 Coeff-En:   0.188D+00 0.812D+00
 Coeff:      0.105D+00 0.895D+00
 Gap=     0.222 Goal=   None    Shift=    0.000
 RMSDP=1.59D-03 MaxDP=7.16D-01 DE=-3.11D-01 OVMax= 1.80D-01

 Cycle   3  Pass 1  IDiag  1:
 RMSU=  7.61D-04    CP:  9.98D-01  3.61D-01
 E= -1496.88782648303     Delta-E=       -0.392794264677 Rises=F Damp=F
 DIIS: error= 7.16D-03 at cycle   3 NSaved=   3.
 NSaved= 3 IEnMin= 3 EnMin= -1496.88782648303     IErMin= 2 ErrMin= 3.72D-03
 ErrMax= 7.16D-03  0.00D+00 EMaxC= 1.00D-01 BMatC= 9.94D-02 BMatP= 8.60D-02
 IDIUse=3 WtCom= 1.06D-01 WtEn= 8.94D-01
 Coeff-Com: -0.186D-01 0.525D+00 0.494D+00
 Coeff-En:   0.000D+00 0.000D+00 0.100D+01
 Coeff:     -0.196D-02 0.555D-01 0.946D+00
 Gap=     0.161 Goal=   None    Shift=    0.000
 RMSDP=1.13D-03 MaxDP=3.80D-01 DE=-3.93D-01 OVMax= 2.09D-01

 Cycle   4  Pass 1  IDiag  1:
 RMSU=  6.21D-04    CP:  9.95D-01  7.07D-01  2.48D-01
 E= -1496.64793004486     Delta-E=        0.239896438170 Rises=F Damp=F
 DIIS: error= 1.63D-02 at cycle   4 NSaved=   4.
 NSaved= 4 IEnMin= 3 EnMin= -1496.88782648303     IErMin= 2 ErrMin= 3.72D-03
 ErrMax= 1.63D-02  0.00D+00 EMaxC= 1.00D-01 BMatC= 3.93D-01 BMatP= 8.60D-02
 IDIUse=2 WtCom= 0.00D+00 WtEn= 1.00D+00
 Coeff-En:   0.000D+00 0.000D+00 0.744D+00 0.256D+00
 Coeff:      0.000D+00 0.000D+00 0.744D+00 0.256D+00
 Gap=     0.154 Goal=   None    Shift=    0.000
 RMSDP=6.97D-04 MaxDP=2.77D-01 DE= 2.40D-01 OVMax= 9.76D-02

 Cycle   5  Pass 1  IDiag  1:
 RMSU=  1.28D-04    CP:  9.92D-01  4.54D-01  6.32D-01  5.42D-01
 E= -1496.95247930216     Delta-E=       -0.304549257301 Rises=F Damp=F
 DIIS: error= 2.73D-03 at cycle   5 NSaved=   5.
 NSaved= 5 IEnMin= 5 EnMin= -1496.95247930216     IErMin= 5 ErrMin= 2.73D-03
 ErrMax= 2.73D-03  0.00D+00 EMaxC= 1.00D-01 BMatC= 2.09D-02 BMatP= 8.60D-02
 IDIUse=3 WtCom= 9.73D-01 WtEn= 2.73D-02
 Coeff-Com:  0.672D-02-0.588D-04 0.341D+00 0.338D-01 0.618D+00
 Coeff-En:   0.000D+00 0.000D+00 0.219D+00 0.000D+00 0.781D+00
 Coeff:      0.654D-02-0.572D-04 0.338D+00 0.329D-01 0.623D+00
 Gap=     0.168 Goal=   None    Shift=    0.000
 RMSDP=1.74D-04 MaxDP=3.90D-02 DE=-3.05D-01 OVMax= 2.94D-02

 Cycle   6  Pass 1  IDiag  1:
 RMSU=  3.29D-05    CP:  9.94D-01  4.21D-01  7.58D-01  3.66D-01  5.90D-01
 E= -1496.96969525486     Delta-E=       -0.017215952702 Rises=F Damp=F
 DIIS: error= 4.38D-04 at cycle   6 NSaved=   6.
 NSaved= 6 IEnMin= 6 EnMin= -1496.96969525486     IErMin= 6 ErrMin= 4.38D-04
 ErrMax= 4.38D-04  0.00D+00 EMaxC= 1.00D-01 BMatC= 4.13D-04 BMatP= 2.09D-02
 IDIUse=3 WtCom= 9.96D-01 WtEn= 4.38D-03
 Coeff-Com:  0.203D-02-0.638D-02 0.133D+00-0.189D-01 0.396D+00 0.494D+00
 Coeff-En:   0.000D+00 0.000D+00 0.000D+00 0.000D+00 0.000D+00 0.100D+01
 Coeff:      0.202D-02-0.635D-02 0.132D+00-0.188D-01 0.394D+00 0.497D+00
 Gap=     0.159 Goal=   None    Shift=    0.000
 RMSDP=2.17D-05 MaxDP=4.26D-03 DE=-1.72D-02 OVMax= 5.52D-03

 Cycle   7  Pass 1  IDiag  1:
 RMSU=  8.95D-06    CP:  9.94D-01  4.16D-01  7.55D-01  3.76D-01  6.87D-01
                    CP:  6.74D-01
 E= -1496.97003765769     Delta-E=       -0.000342402830 Rises=F Damp=F
 DIIS: error= 6.56D-05 at cycle   7 NSaved=   7.
 NSaved= 7 IEnMin= 7 EnMin= -1496.97003765769     IErMin= 7 ErrMin= 6.56D-05
 ErrMax= 6.56D-05  0.00D+00 EMaxC= 1.00D-01 BMatC= 2.13D-05 BMatP= 4.13D-04
 IDIUse=1 WtCom= 1.00D+00 WtEn= 0.00D+00
 Coeff-Com:  0.598D-03-0.258D-02 0.507D-01-0.158D-01 0.184D+00 0.269D+00
 Coeff-Com:  0.514D+00
 Coeff:      0.598D-03-0.258D-02 0.507D-01-0.158D-01 0.184D+00 0.269D+00
 Coeff:      0.514D+00
 Gap=     0.159 Goal=   None    Shift=    0.000
 RMSDP=5.27D-06 MaxDP=1.09D-03 DE=-3.42D-04 OVMax= 1.48D-03

 Cycle   8  Pass 1  IDiag  1:
 RMSU=  3.37D-06    CP:  9.94D-01  4.17D-01  7.53D-01  3.77D-01  7.00D-01
                    CP:  6.75D-01  6.89D-01
 E= -1496.97005549201     Delta-E=       -0.000017834322 Rises=F Damp=F
 DIIS: error= 2.95D-05 at cycle   8 NSaved=   8.
 NSaved= 8 IEnMin= 8 EnMin= -1496.97005549201     IErMin= 8 ErrMin= 2.95D-05
 ErrMax= 2.95D-05  0.00D+00 EMaxC= 1.00D-01 BMatC= 2.46D-06 BMatP= 2.13D-05
 IDIUse=1 WtCom= 1.00D+00 WtEn= 0.00D+00
 Coeff-Com:  0.153D-03-0.515D-03 0.125D-01-0.658D-02 0.536D-01 0.797D-01
 Coeff-Com:  0.288D+00 0.573D+00
 Coeff:      0.153D-03-0.515D-03 0.125D-01-0.658D-02 0.536D-01 0.797D-01
 Coeff:      0.288D+00 0.573D+00
 Gap=     0.159 Goal=   None    Shift=    0.000
 RMSDP=1.88D-06 MaxDP=5.27D-04 DE=-1.78D-05 OVMax= 4.45D-04

 Cycle   9  Pass 1  IDiag  1:
 RMSU=  1.05D-06    CP:  9.94D-01  4.17D-01  7.54D-01  3.77D-01  7.02D-01
                    CP:  6.69D-01  7.47D-01  7.75D-01
 E= -1496.97005734557     Delta-E=       -0.000001853558 Rises=F Damp=F
 DIIS: error= 7.57D-06 at cycle   9 NSaved=   9.
 NSaved= 9 IEnMin= 9 EnMin= -1496.97005734557     IErMin= 9 ErrMin= 7.57D-06
 ErrMax= 7.57D-06  0.00D+00 EMaxC= 1.00D-01 BMatC= 2.39D-07 BMatP= 2.46D-06
 IDIUse=1 WtCom= 1.00D+00 WtEn= 0.00D+00
 Coeff-Com:  0.515D-04-0.159D-03 0.307D-02-0.240D-02 0.150D-01 0.205D-01
 Coeff-Com:  0.116D+00 0.320D+00 0.528D+00
 Coeff:      0.515D-04-0.159D-03 0.307D-02-0.240D-02 0.150D-01 0.205D-01
 Coeff:      0.116D+00 0.320D+00 0.528D+00
 Gap=     0.159 Goal=   None    Shift=    0.000
 RMSDP=7.31D-07 MaxDP=1.67D-04 DE=-1.85D-06 OVMax= 1.94D-04

 Cycle  10  Pass 1  IDiag  1:
 RMSU=  3.38D-07    CP:  9.94D-01  4.17D-01  7.54D-01  3.76D-01  7.01D-01
                    CP:  6.75D-01  7.60D-01  7.96D-01  7.10D-01
 E= -1496.97005757651     Delta-E=       -0.000000230937 Rises=F Damp=F
 DIIS: error= 2.20D-06 at cycle  10 NSaved=  10.
 NSaved=10 IEnMin=10 EnMin= -1496.97005757651     IErMin=10 ErrMin= 2.20D-06
 ErrMax= 2.20D-06  0.00D+00 EMaxC= 1.00D-01 BMatC= 2.08D-08 BMatP= 2.39D-07
 IDIUse=1 WtCom= 1.00D+00 WtEn= 0.00D+00
 Coeff-Com:  0.175D-04-0.525D-04 0.440D-03-0.590D-03 0.258D-02 0.261D-02
 Coeff-Com:  0.329D-01 0.112D+00 0.284D+00 0.566D+00
 Coeff:      0.175D-04-0.525D-04 0.440D-03-0.590D-03 0.258D-02 0.261D-02
 Coeff:      0.329D-01 0.112D+00 0.284D+00 0.566D+00
 Gap=     0.159 Goal=   None    Shift=    0.000
 RMSDP=2.03D-07 MaxDP=4.07D-05 DE=-2.31D-07 OVMax= 6.63D-05

 Cycle  11  Pass 1  IDiag  1:
 RMSU=  1.10D-07    CP:  9.94D-01  4.17D-01  7.54D-01  3.76D-01  7.01D-01
                    CP:  6.74D-01  7.64D-01  8.02D-01  7.68D-01  7.69D-01
 E= -1496.97005759325     Delta-E=       -0.000000016740 Rises=F Damp=F
 DIIS: error= 1.01D-06 at cycle  11 NSaved=  11.
 NSaved=11 IEnMin=11 EnMin= -1496.97005759325     IErMin=11 ErrMin= 1.01D-06
 ErrMax= 1.01D-06  0.00D+00 EMaxC= 1.00D-01 BMatC= 4.36D-09 BMatP= 2.08D-08
 IDIUse=1 WtCom= 1.00D+00 WtEn= 0.00D+00
 Coeff-Com:  0.499D-05-0.168D-04-0.126D-03-0.492D-04-0.355D-03-0.100D-02
 Coeff-Com:  0.525D-02 0.288D-01 0.110D+00 0.361D+00 0.496D+00
 Coeff:      0.499D-05-0.168D-04-0.126D-03-0.492D-04-0.355D-03-0.100D-02
 Coeff:      0.525D-02 0.288D-01 0.110D+00 0.361D+00 0.496D+00
 Gap=     0.159 Goal=   None    Shift=    0.000
 RMSDP=5.44D-08 MaxDP=5.96D-06 DE=-1.67D-08 OVMax= 1.81D-05

 Cycle  12  Pass 1  IDiag  1:
 RMSU=  3.43D-08    CP:  9.94D-01  4.17D-01  7.54D-01  3.76D-01  7.01D-01
                    CP:  6.74D-01  7.65D-01  8.03D-01  7.69D-01  8.14D-01
                    CP:  6.81D-01
 E= -1496.97005759721     Delta-E=       -0.000000003964 Rises=F Damp=F
 DIIS: error= 2.46D-07 at cycle  12 NSaved=  12.
 NSaved=12 IEnMin=12 EnMin= -1496.97005759721     IErMin=12 ErrMin= 2.46D-07
 ErrMax= 2.46D-07  0.00D+00 EMaxC= 1.00D-01 BMatC= 1.82D-10 BMatP= 4.36D-09
 IDIUse=1 WtCom= 1.00D+00 WtEn= 0.00D+00
 Coeff-Com: -0.439D-07-0.324D-05-0.935D-04 0.194D-04-0.328D-03-0.498D-03
 Coeff-Com: -0.744D-04 0.544D-02 0.265D-01 0.116D+00 0.213D+00 0.640D+00
 Coeff:     -0.439D-07-0.324D-05-0.935D-04 0.194D-04-0.328D-03-0.498D-03
 Coeff:     -0.744D-04 0.544D-02 0.265D-01 0.116D+00 0.213D+00 0.640D+00
 Gap=     0.159 Goal=   None    Shift=    0.000
 RMSDP=1.88D-08 MaxDP=4.79D-06 DE=-3.96D-09 OVMax= 3.51D-06

 Cycle  13  Pass 1  IDiag  1:
 RMSU=  1.13D-08    CP:  9.94D-01  4.17D-01  7.54D-01  3.76D-01  7.01D-01
                    CP:  6.74D-01  7.65D-01  8.04D-01  7.72D-01  8.20D-01
                    CP:  7.08D-01  8.83D-01
 E= -1496.97005759729     Delta-E=       -0.000000000084 Rises=F Damp=F
 DIIS: error= 1.09D-07 at cycle  13 NSaved=  13.
 NSaved=13 IEnMin=13 EnMin= -1496.97005759729     IErMin=13 ErrMin= 1.09D-07
 ErrMax= 1.09D-07  0.00D+00 EMaxC= 1.00D-01 BMatC= 3.99D-11 BMatP= 1.82D-10
 IDIUse=1 WtCom= 1.00D+00 WtEn= 0.00D+00
 Coeff-Com: -0.103D-05 0.103D-05-0.471D-04 0.221D-04-0.176D-03-0.184D-03
 Coeff-Com: -0.914D-03-0.586D-03 0.918D-03 0.213D-01 0.565D-01 0.366D+00
 Coeff-Com:  0.557D+00
 Coeff:     -0.103D-05 0.103D-05-0.471D-04 0.221D-04-0.176D-03-0.184D-03
 Coeff:     -0.914D-03-0.586D-03 0.918D-03 0.213D-01 0.565D-01 0.366D+00
 Coeff:      0.557D+00
 Gap=     0.159 Goal=   None    Shift=    0.000
 RMSDP=6.12D-09 MaxDP=8.23D-07 DE=-8.37D-11 OVMax= 1.29D-06

 Error on total polarization charges =  0.05403
 SCF Done:  E(RB3LYP) =  -1496.97005760     A.U. after   13 cycles
            NFock= 13  Conv=0.61D-08     -V/T= 2.0052
 KE= 1.489183289410D+03 PE=-1.068901387471D+04 EE= 4.104044718401D+03
 SMD-CDS (non-electrostatic) energy       (kcal/mol) =      -9.03
 (included in total energy above)
 Leave Link  502 at Wed Feb 26 21:32:54 2025, MaxMem=  4294967296 cpu:           17232.0 elap:             721.4
 (Enter /ihome/crc/install/gaussian/c01/avx2/tar/g16/l601.exe)
 Copying SCF densities to generalized density rwf, IOpCl= 0 IROHF=0.

 **********************************************************************

            Population analysis using the SCF Density.

 **********************************************************************

 Alpha  occ. eigenvalues --  -24.70122 -19.13059 -19.08685 -19.07272 -14.37476
 Alpha  occ. eigenvalues --  -14.36507 -14.26534 -10.28622 -10.26691 -10.24778
 Alpha  occ. eigenvalues --  -10.24479 -10.23919 -10.21970 -10.21481 -10.21290
 Alpha  occ. eigenvalues --  -10.21113 -10.20301 -10.20254 -10.20180 -10.19026
 Alpha  occ. eigenvalues --  -10.18814 -10.18786 -10.18348 -10.18326 -10.18009
 Alpha  occ. eigenvalues --  -10.17621 -10.17554 -10.17505 -10.17410 -10.17215
 Alpha  occ. eigenvalues --  -10.16982 -10.16098 -10.15837  -1.24164  -1.05029
 Alpha  occ. eigenvalues --   -1.02814  -1.01526  -1.00835  -0.95406  -0.88938
 Alpha  occ. eigenvalues --   -0.88169  -0.85271  -0.84215  -0.81024  -0.78242
 Alpha  occ. eigenvalues --   -0.78152  -0.75772  -0.75353  -0.74366  -0.73230
 Alpha  occ. eigenvalues --   -0.72686  -0.71095  -0.67544  -0.65439  -0.64903
 Alpha  occ. eigenvalues --   -0.63544  -0.63391  -0.61174  -0.59966  -0.59786
 Alpha  occ. eigenvalues --   -0.58747  -0.56699  -0.56207  -0.54900  -0.53194
 Alpha  occ. eigenvalues --   -0.52413  -0.51228  -0.50251  -0.50088  -0.49859
 Alpha  occ. eigenvalues --   -0.48572  -0.48102  -0.47841  -0.47132  -0.46897
 Alpha  occ. eigenvalues --   -0.46650  -0.45897  -0.45765  -0.45294  -0.45131
 Alpha  occ. eigenvalues --   -0.44660  -0.44126  -0.42814  -0.42546  -0.42120
 Alpha  occ. eigenvalues --   -0.41768  -0.41623  -0.41125  -0.40967  -0.40028
 Alpha  occ. eigenvalues --   -0.38732  -0.38670  -0.38270  -0.38157  -0.37925
 Alpha  occ. eigenvalues --   -0.37698  -0.37526  -0.37282  -0.36726  -0.36120
 Alpha  occ. eigenvalues --   -0.35994  -0.35445  -0.34478  -0.33849  -0.33421
 Alpha  occ. eigenvalues --   -0.31953  -0.31044  -0.30170  -0.28216  -0.27978
 Alpha  occ. eigenvalues --   -0.27384  -0.25785  -0.25561  -0.24507  -0.24150
 Alpha  occ. eigenvalues --   -0.23676  -0.22726  -0.21930
 Alpha virt. eigenvalues --   -0.05998  -0.03694  -0.02968  -0.01287  -0.00766
 Alpha virt. eigenvalues --    0.00486   0.01010   0.03649   0.04763   0.05358
 Alpha virt. eigenvalues --    0.05611   0.05744   0.06023   0.06629   0.06791
 Alpha virt. eigenvalues --    0.07827   0.07974   0.08503   0.08972   0.09430
 Alpha virt. eigenvalues --    0.09520   0.09771   0.10233   0.10645   0.10982
 Alpha virt. eigenvalues --    0.11130   0.11603   0.11885   0.11988   0.12313
 Alpha virt. eigenvalues --    0.12833   0.12969   0.13435   0.13740   0.13836
 Alpha virt. eigenvalues --    0.14078   0.14496   0.14541   0.14856   0.15746
 Alpha virt. eigenvalues --    0.15899   0.16473   0.16924   0.17025   0.17465
 Alpha virt. eigenvalues --    0.17658   0.18585   0.18864   0.19032   0.19386
 Alpha virt. eigenvalues --    0.19592   0.19907   0.20293   0.20391   0.20666
 Alpha virt. eigenvalues --    0.21199   0.21809   0.22170   0.22414   0.22813
 Alpha virt. eigenvalues --    0.22926   0.23081   0.23331   0.23391   0.24037
 Alpha virt. eigenvalues --    0.24341   0.25252   0.25681   0.25787   0.26353
 Alpha virt. eigenvalues --    0.26433   0.26857   0.27130   0.27644   0.27789
 Alpha virt. eigenvalues --    0.28433   0.28920   0.28967   0.29195   0.29685
 Alpha virt. eigenvalues --    0.29932   0.30175   0.30481   0.30810   0.30967
 Alpha virt. eigenvalues --    0.31462   0.31954   0.32109   0.32476   0.32873
 Alpha virt. eigenvalues --    0.33391   0.33684   0.33855   0.34288   0.34453
 Alpha virt. eigenvalues --    0.34953   0.35165   0.35206   0.35470   0.35809
 Alpha virt. eigenvalues --    0.36243   0.36408   0.36572   0.37027   0.37276
 Alpha virt. eigenvalues --    0.37630   0.37847   0.38213   0.38604   0.38840
 Alpha virt. eigenvalues --    0.38925   0.39523   0.39758   0.39929   0.40309
 Alpha virt. eigenvalues --    0.40616   0.41012   0.41174   0.41449   0.41743
 Alpha virt. eigenvalues --    0.42035   0.42148   0.42527   0.42637   0.42844
 Alpha virt. eigenvalues --    0.43372   0.43467   0.43559   0.43925   0.44192
 Alpha virt. eigenvalues --    0.44599   0.44844   0.45080   0.45225   0.45463
 Alpha virt. eigenvalues --    0.45729   0.45766   0.46220   0.46520   0.46778
 Alpha virt. eigenvalues --    0.46911   0.47151   0.47478   0.47944   0.48048
 Alpha virt. eigenvalues --    0.48547   0.48694   0.48927   0.50087   0.50108
 Alpha virt. eigenvalues --    0.50515   0.50713   0.50839   0.51065   0.51572
 Alpha virt. eigenvalues --    0.51826   0.51972   0.52227   0.52680   0.53032
 Alpha virt. eigenvalues --    0.53136   0.53971   0.54290   0.54444   0.55288
 Alpha virt. eigenvalues --    0.55601   0.55916   0.56802   0.57290   0.57854
 Alpha virt. eigenvalues --    0.57939   0.58292   0.59254   0.59568   0.59859
 Alpha virt. eigenvalues --    0.60071   0.60271   0.61090   0.61498   0.61697
 Alpha virt. eigenvalues --    0.62561   0.62791   0.63136   0.63503   0.63843
 Alpha virt. eigenvalues --    0.64544   0.64773   0.65448   0.65518   0.65909
 Alpha virt. eigenvalues --    0.66387   0.66432   0.67029   0.67303   0.67630
 Alpha virt. eigenvalues --    0.67912   0.68355   0.68667   0.68756   0.69472
 Alpha virt. eigenvalues --    0.69702   0.70092   0.70337   0.70820   0.71296
 Alpha virt. eigenvalues --    0.71467   0.71881   0.72111   0.72392   0.72907
 Alpha virt. eigenvalues --    0.73449   0.74074   0.74730   0.75340   0.75450
 Alpha virt. eigenvalues --    0.75690   0.76157   0.76508   0.77327   0.77796
 Alpha virt. eigenvalues --    0.78416   0.78765   0.79246   0.79550   0.80131
 Alpha virt. eigenvalues --    0.80573   0.81155   0.81407   0.81880   0.82029
 Alpha virt. eigenvalues --    0.82818   0.83519   0.83659   0.84013   0.84601
 Alpha virt. eigenvalues --    0.84914   0.85268   0.85435   0.85755   0.86059
 Alpha virt. eigenvalues --    0.86403   0.86838   0.87227   0.87827   0.87957
 Alpha virt. eigenvalues --    0.88338   0.88759   0.89178   0.89934   0.90132
 Alpha virt. eigenvalues --    0.90247   0.90434   0.91160   0.91613   0.92001
 Alpha virt. eigenvalues --    0.92527   0.93084   0.93544   0.93941   0.94382
 Alpha virt. eigenvalues --    0.94540   0.95227   0.95899   0.95990   0.96236
 Alpha virt. eigenvalues --    0.96819   0.97175   0.97305   0.97496   0.97895
 Alpha virt. eigenvalues --    0.98165   0.98866   0.99029   0.99631   1.00463
 Alpha virt. eigenvalues --    1.00702   1.01221   1.01782   1.01933   1.02455
 Alpha virt. eigenvalues --    1.02488   1.03093   1.03963   1.04402   1.04774
 Alpha virt. eigenvalues --    1.05097   1.05243   1.05592   1.06630   1.06917
 Alpha virt. eigenvalues --    1.07159   1.07503   1.07632   1.08132   1.08490
 Alpha virt. eigenvalues --    1.08823   1.08960   1.09454   1.10131   1.10232
 Alpha virt. eigenvalues --    1.10608   1.10945   1.11476   1.11766   1.12380
 Alpha virt. eigenvalues --    1.12677   1.13182   1.13656   1.14006   1.14478
 Alpha virt. eigenvalues --    1.14650   1.15220   1.15373   1.15678   1.16070
 Alpha virt. eigenvalues --    1.16444   1.16891   1.17306   1.17451   1.18140
 Alpha virt. eigenvalues --    1.18303   1.18772   1.19141   1.19392   1.19858
 Alpha virt. eigenvalues --    1.20525   1.21083   1.21119   1.21770   1.22364
 Alpha virt. eigenvalues --    1.22604   1.23025   1.23329   1.24208   1.24398
 Alpha virt. eigenvalues --    1.24657   1.24873   1.25341   1.25842   1.26099
 Alpha virt. eigenvalues --    1.26404   1.26585   1.27106   1.27559   1.28327
 Alpha virt. eigenvalues --    1.28631   1.29012   1.29279   1.29682   1.30046
 Alpha virt. eigenvalues --    1.30306   1.30903   1.31134   1.31821   1.32312
 Alpha virt. eigenvalues --    1.32515   1.32846   1.33512   1.33875   1.34602
 Alpha virt. eigenvalues --    1.35034   1.35289   1.35562   1.36454   1.36618
 Alpha virt. eigenvalues --    1.37045   1.37485   1.37863   1.38084   1.38794
 Alpha virt. eigenvalues --    1.39187   1.39434   1.39896   1.40550   1.40894
 Alpha virt. eigenvalues --    1.41565   1.41652   1.42288   1.42798   1.43239
 Alpha virt. eigenvalues --    1.43490   1.43698   1.44055   1.44450   1.44851
 Alpha virt. eigenvalues --    1.45230   1.45660   1.46000   1.46781   1.46895
 Alpha virt. eigenvalues --    1.47174   1.47745   1.47868   1.48591   1.48748
 Alpha virt. eigenvalues --    1.49397   1.49633   1.49919   1.50275   1.51010
 Alpha virt. eigenvalues --    1.51432   1.51577   1.52473   1.52862   1.53053
 Alpha virt. eigenvalues --    1.53608   1.54178   1.54676   1.54873   1.55294
 Alpha virt. eigenvalues --    1.56005   1.56285   1.56949   1.57482   1.58079
 Alpha virt. eigenvalues --    1.58535   1.59283   1.59693   1.59788   1.60470
 Alpha virt. eigenvalues --    1.60906   1.61205   1.62085   1.62725   1.63127
 Alpha virt. eigenvalues --    1.63598   1.63832   1.65189   1.65443   1.65594
 Alpha virt. eigenvalues --    1.66107   1.66862   1.67006   1.67388   1.67652
 Alpha virt. eigenvalues --    1.68215   1.68784   1.69248   1.69867   1.69972
 Alpha virt. eigenvalues --    1.70446   1.71084   1.71478   1.72281   1.72796
 Alpha virt. eigenvalues --    1.73458   1.74116   1.74338   1.74867   1.75539
 Alpha virt. eigenvalues --    1.76560   1.77000   1.77134   1.77595   1.77897
 Alpha virt. eigenvalues --    1.78922   1.79078   1.79966   1.81073   1.81477
 Alpha virt. eigenvalues --    1.81721   1.82338   1.82726   1.83616   1.83765
 Alpha virt. eigenvalues --    1.84407   1.85606   1.85861   1.86788   1.87877
 Alpha virt. eigenvalues --    1.87977   1.88708   1.89197   1.91090   1.92059
 Alpha virt. eigenvalues --    1.92392   1.93092   1.93329   1.93938   1.94283
 Alpha virt. eigenvalues --    1.95446   1.96022   1.96720   1.97125   1.97405
 Alpha virt. eigenvalues --    1.97783   1.98541   1.99287   1.99803   2.00129
 Alpha virt. eigenvalues --    2.00767   2.00960   2.01766   2.02352   2.03203
 Alpha virt. eigenvalues --    2.04005   2.04716   2.04905   2.05706   2.06872
 Alpha virt. eigenvalues --    2.07377   2.07940   2.08370   2.08810   2.09094
 Alpha virt. eigenvalues --    2.09763   2.10687   2.11559   2.11854   2.12005
 Alpha virt. eigenvalues --    2.12395   2.13618   2.14494   2.14942   2.15303
 Alpha virt. eigenvalues --    2.15389   2.16328   2.17706   2.18746   2.19813
 Alpha virt. eigenvalues --    2.20405   2.21266   2.22167   2.22275   2.23944
 Alpha virt. eigenvalues --    2.24238   2.25294   2.25599   2.26974   2.27657
 Alpha virt. eigenvalues --    2.29174   2.29510   2.30212   2.30375   2.31007
 Alpha virt. eigenvalues --    2.31635   2.32135   2.32916   2.33008   2.33164
 Alpha virt. eigenvalues --    2.34050   2.35218   2.35745   2.36110   2.36623
 Alpha virt. eigenvalues --    2.37106   2.37333   2.39084   2.39732   2.40092
 Alpha virt. eigenvalues --    2.40607   2.41608   2.41723   2.42173   2.42658
 Alpha virt. eigenvalues --    2.43208   2.44059   2.44987   2.45705   2.46124
 Alpha virt. eigenvalues --    2.46599   2.47426   2.48675   2.49464   2.50671
 Alpha virt. eigenvalues --    2.51842   2.52585   2.53784   2.54766   2.55475
 Alpha virt. eigenvalues --    2.56204   2.56511   2.56714   2.57270   2.58292
 Alpha virt. eigenvalues --    2.59533   2.60492   2.60942   2.61402   2.61739
 Alpha virt. eigenvalues --    2.61992   2.62935   2.63764   2.64118   2.64915
 Alpha virt. eigenvalues --    2.65185   2.65622   2.66671   2.67506   2.68045
 Alpha virt. eigenvalues --    2.68380   2.69261   2.69779   2.70608   2.71273
 Alpha virt. eigenvalues --    2.71502   2.71876   2.72150   2.72657   2.72759
 Alpha virt. eigenvalues --    2.73545   2.74030   2.74166   2.74488   2.74830
 Alpha virt. eigenvalues --    2.75993   2.76219   2.76693   2.77247   2.77822
 Alpha virt. eigenvalues --    2.78123   2.78764   2.79065   2.79648   2.79787
 Alpha virt. eigenvalues --    2.80434   2.80630   2.80782   2.81250   2.82020
 Alpha virt. eigenvalues --    2.82378   2.82772   2.83537   2.83938   2.84190
 Alpha virt. eigenvalues --    2.84300   2.85037   2.85234   2.86056   2.86980
 Alpha virt. eigenvalues --    2.87566   2.88437   2.88723   2.89212   2.89660
 Alpha virt. eigenvalues --    2.89814   2.91042   2.91355   2.91711   2.91912
 Alpha virt. eigenvalues --    2.92628   2.92869   2.93176   2.93301   2.93655
 Alpha virt. eigenvalues --    2.94509   2.94616   2.95110   2.95869   2.96300
 Alpha virt. eigenvalues --    2.96692   2.97406   2.97814   2.98023   2.98549
 Alpha virt. eigenvalues --    2.98667   2.99358   2.99758   3.00767   3.01087
 Alpha virt. eigenvalues --    3.01233   3.01548   3.01779   3.02184   3.02467
 Alpha virt. eigenvalues --    3.03056   3.03377   3.03458   3.03903   3.04499
 Alpha virt. eigenvalues --    3.04698   3.04815   3.05100   3.05533   3.05871
 Alpha virt. eigenvalues --    3.06281   3.06510   3.06547   3.07199   3.07621
 Alpha virt. eigenvalues --    3.08247   3.08664   3.08789   3.09015   3.09872
 Alpha virt. eigenvalues --    3.10124   3.10550   3.11431   3.11505   3.11987
 Alpha virt. eigenvalues --    3.12302   3.12552   3.12728   3.12968   3.13202
 Alpha virt. eigenvalues --    3.13506   3.13820   3.14491   3.14808   3.14824
 Alpha virt. eigenvalues --    3.15213   3.15591   3.15816   3.15896   3.16577
 Alpha virt. eigenvalues --    3.17005   3.17384   3.17894   3.18306   3.18431
 Alpha virt. eigenvalues --    3.18626   3.19055   3.19207   3.20063   3.20084
 Alpha virt. eigenvalues --    3.20598   3.20691   3.21666   3.22131   3.22531
 Alpha virt. eigenvalues --    3.22869   3.23274   3.23599   3.23806   3.24152
 Alpha virt. eigenvalues --    3.24727   3.25105   3.25737   3.26050   3.26325
 Alpha virt. eigenvalues --    3.26974   3.27241   3.27350   3.28132   3.28430
 Alpha virt. eigenvalues --    3.29396   3.29518   3.29697   3.30349   3.30623
 Alpha virt. eigenvalues --    3.31434   3.31665   3.32230   3.32627   3.33076
 Alpha virt. eigenvalues --    3.33275   3.33843   3.33971   3.34171   3.34400
 Alpha virt. eigenvalues --    3.34807   3.34917   3.35288   3.35517   3.36060
 Alpha virt. eigenvalues --    3.36510   3.36808   3.37238   3.37813   3.38092
 Alpha virt. eigenvalues --    3.38832   3.39290   3.40056   3.40293   3.40458
 Alpha virt. eigenvalues --    3.40800   3.41554   3.41887   3.42237   3.42700
 Alpha virt. eigenvalues --    3.43193   3.43540   3.43899   3.44725   3.45042
 Alpha virt. eigenvalues --    3.45566   3.46005   3.46311   3.46729   3.47182
 Alpha virt. eigenvalues --    3.47661   3.48121   3.48572   3.49225   3.49574
 Alpha virt. eigenvalues --    3.49973   3.50264   3.50706   3.51098   3.51486
 Alpha virt. eigenvalues --    3.51852   3.52426   3.52836   3.53340   3.53680
 Alpha virt. eigenvalues --    3.53900   3.54071   3.54894   3.55277   3.55305
 Alpha virt. eigenvalues --    3.56010   3.56475   3.56880   3.57610   3.58236
 Alpha virt. eigenvalues --    3.58580   3.58644   3.58979   3.59654   3.60274
 Alpha virt. eigenvalues --    3.60946   3.61172   3.61318   3.62117   3.62702
 Alpha virt. eigenvalues --    3.63038   3.63214   3.63731   3.64120   3.64444
 Alpha virt. eigenvalues --    3.64942   3.65637   3.65955   3.66459   3.66964
 Alpha virt. eigenvalues --    3.67236   3.67596   3.68413   3.68527   3.69193
 Alpha virt. eigenvalues --    3.69569   3.69947   3.70013   3.70934   3.71037
 Alpha virt. eigenvalues --    3.71840   3.72061   3.72902   3.73032   3.73676
 Alpha virt. eigenvalues --    3.74148   3.74526   3.74700   3.75542   3.75740
 Alpha virt. eigenvalues --    3.76338   3.76909   3.77376   3.77531   3.77844
 Alpha virt. eigenvalues --    3.78129   3.78556   3.78848   3.79301   3.79884
 Alpha virt. eigenvalues --    3.80421   3.80982   3.81387   3.82005   3.82341
 Alpha virt. eigenvalues --    3.82497   3.83156   3.84054   3.84501   3.84549
 Alpha virt. eigenvalues --    3.84805   3.85073   3.85635   3.86318   3.86690
 Alpha virt. eigenvalues --    3.87061   3.87385   3.87684   3.88339   3.88873
 Alpha virt. eigenvalues --    3.89528   3.89685   3.90391   3.90879   3.91585
 Alpha virt. eigenvalues --    3.91917   3.92336   3.92608   3.93105   3.93626
 Alpha virt. eigenvalues --    3.93963   3.94715   3.95112   3.95998   3.96280
 Alpha virt. eigenvalues --    3.96613   3.97337   3.97506   3.98691   3.99228
 Alpha virt. eigenvalues --    3.99378   4.00051   4.00484   4.01286   4.01563
 Alpha virt. eigenvalues --    4.02140   4.02537   4.02824   4.03226   4.03651
 Alpha virt. eigenvalues --    4.04151   4.04838   4.05018   4.05979   4.06199
 Alpha virt. eigenvalues --    4.07569   4.07834   4.08316   4.08984   4.09356
 Alpha virt. eigenvalues --    4.09664   4.10245   4.10360   4.10867   4.11469
 Alpha virt. eigenvalues --    4.11953   4.12316   4.12773   4.13040   4.13393
 Alpha virt. eigenvalues --    4.13887   4.14400   4.15082   4.15308   4.15866
 Alpha virt. eigenvalues --    4.16116   4.16659   4.16668   4.17640   4.18121
 Alpha virt. eigenvalues --    4.18505   4.18734   4.18873   4.19053   4.19728
 Alpha virt. eigenvalues --    4.20026   4.20339   4.20962   4.21839   4.22065
 Alpha virt. eigenvalues --    4.22973   4.23298   4.24261   4.24673   4.25428
 Alpha virt. eigenvalues --    4.25682   4.25970   4.26187   4.26762   4.27244
 Alpha virt. eigenvalues --    4.27700   4.28169   4.28559   4.28839   4.29283
 Alpha virt. eigenvalues --    4.29793   4.30191   4.30542   4.30810   4.31116
 Alpha virt. eigenvalues --    4.32007   4.32801   4.33081   4.33631   4.34189
 Alpha virt. eigenvalues --    4.34368   4.34878   4.35301   4.36049   4.36565
 Alpha virt. eigenvalues --    4.36983   4.37765   4.38433   4.38921   4.39478
 Alpha virt. eigenvalues --    4.40141   4.40535   4.40703   4.41623   4.41870
 Alpha virt. eigenvalues --    4.42369   4.43433   4.44368   4.44801   4.45527
 Alpha virt. eigenvalues --    4.46138   4.47072   4.47242   4.47756   4.48571
 Alpha virt. eigenvalues --    4.49484   4.49762   4.50236   4.51316   4.52574
 Alpha virt. eigenvalues --    4.54131   4.54537   4.55274   4.55753   4.57129
 Alpha virt. eigenvalues --    4.58182   4.59513   4.60380   4.60656   4.61517
 Alpha virt. eigenvalues --    4.62122   4.63403   4.63648   4.64400   4.64834
 Alpha virt. eigenvalues --    4.65102   4.65778   4.66085   4.66307   4.66560
 Alpha virt. eigenvalues --    4.67465   4.67780   4.68269   4.69204   4.69360
 Alpha virt. eigenvalues --    4.69690   4.69850   4.70224   4.70631   4.71740
 Alpha virt. eigenvalues --    4.72129   4.72769   4.73721   4.74362   4.74758
 Alpha virt. eigenvalues --    4.75611   4.75924   4.76813   4.77045   4.77974
 Alpha virt. eigenvalues --    4.78888   4.79300   4.80169   4.81019   4.82258
 Alpha virt. eigenvalues --    4.83237   4.83366   4.83544   4.84380   4.84463
 Alpha virt. eigenvalues --    4.85419   4.86287   4.87020   4.87631   4.87806
 Alpha virt. eigenvalues --    4.88767   4.89122   4.89516   4.91044   4.92109
 Alpha virt. eigenvalues --    4.92520   4.94549   4.95070   4.95517   4.96772
 Alpha virt. eigenvalues --    4.97322   4.98006   4.99293   4.99986   5.01019
 Alpha virt. eigenvalues --    5.01488   5.02668   5.02903   5.03577   5.04348
 Alpha virt. eigenvalues --    5.05308   5.06148   5.06548   5.07399   5.07588
 Alpha virt. eigenvalues --    5.08204   5.08998   5.09334   5.10365   5.10816
 Alpha virt. eigenvalues --    5.11709   5.12225   5.13804   5.14409   5.15352
 Alpha virt. eigenvalues --    5.16201   5.16487   5.17785   5.17949   5.18647
 Alpha virt. eigenvalues --    5.19552   5.19951   5.20778   5.21393   5.22005
 Alpha virt. eigenvalues --    5.22455   5.22874   5.23546   5.23775   5.24301
 Alpha virt. eigenvalues --    5.24483   5.25684   5.27477   5.27975   5.28499
 Alpha virt. eigenvalues --    5.28595   5.29752   5.31015   5.31601   5.32357
 Alpha virt. eigenvalues --    5.33181   5.33710   5.34197   5.34687   5.35345
 Alpha virt. eigenvalues --    5.36173   5.37047   5.37942   5.38349   5.39192
 Alpha virt. eigenvalues --    5.39456   5.40281   5.40972   5.41601   5.42818
 Alpha virt. eigenvalues --    5.43302   5.43649   5.45097   5.45950   5.46366
 Alpha virt. eigenvalues --    5.47274   5.47994   5.48830   5.50137   5.50419
 Alpha virt. eigenvalues --    5.51856   5.52193   5.52283   5.52769   5.54194
 Alpha virt. eigenvalues --    5.54673   5.55392   5.56348   5.56633   5.57793
 Alpha virt. eigenvalues --    5.58759   5.58958   5.61248   5.61792   5.62132
 Alpha virt. eigenvalues --    5.62888   5.63823   5.64076   5.65098   5.65509
 Alpha virt. eigenvalues --    5.67362   5.68128   5.69142   5.69612   5.70491
 Alpha virt. eigenvalues --    5.71843   5.72476   5.73375   5.74656   5.75920
 Alpha virt. eigenvalues --    5.76909   5.77513   5.79520   5.80036   5.80435
 Alpha virt. eigenvalues --    5.81916   5.83340   5.84975   5.85543   5.87397
 Alpha virt. eigenvalues --    5.88237   5.91081   5.92393   5.94843   5.98487
 Alpha virt. eigenvalues --    5.99738   6.03445   6.04452   6.05398   6.07795
 Alpha virt. eigenvalues --    6.09314   6.11552   6.14534   6.15968   6.20177
 Alpha virt. eigenvalues --    6.20903   6.23713   6.27730   6.32663   6.35689
 Alpha virt. eigenvalues --    6.41115   6.42311   6.43550   6.47915   6.50889
 Alpha virt. eigenvalues --    6.57769   6.67892   6.69241   6.72096   6.76554
 Alpha virt. eigenvalues --    6.81341   6.85131   6.85540   6.86963   6.87683
 Alpha virt. eigenvalues --    6.90317   6.92543   6.94779   6.98645   7.02361
 Alpha virt. eigenvalues --    7.03795   7.10021   7.11301   7.13111   7.19123
 Alpha virt. eigenvalues --    7.25916   7.34401   7.41235   7.47114   7.51141
 Alpha virt. eigenvalues --    7.65962   8.39303   8.58001   8.78209   9.03090
 Alpha virt. eigenvalues --    9.04958  22.70148  22.77113  22.89174  23.04048
 Alpha virt. eigenvalues --   23.07949  23.11338  23.12018  23.14385  23.17084
 Alpha virt. eigenvalues --   23.18689  23.21073  23.26524  23.27833  23.29354
 Alpha virt. eigenvalues --   23.30934  23.38303  23.39581  23.42639  23.43694
 Alpha virt. eigenvalues --   23.45391  23.54018  23.59020  23.66287  23.76263
 Alpha virt. eigenvalues --   23.90673  24.13397  32.60837  33.02029  33.34404
 Alpha virt. eigenvalues --   44.01748  44.24898  44.30443  57.46677
          Condensed to atoms (all electrons):
 Mulliken charges:
               1
     1  N   -0.445157
     2  C    0.337163
     3  C   -0.124640
     4  C   -0.117699
     5  C    0.185661
     6  O   -0.394638
     7  O   -0.502041
     8  H    0.084800
     9  H    0.083369
    10  H    0.076189
    11  H    0.073380
    12  C    0.143828
    13  C   -0.181303
    14  C    0.036702
    15  C   -0.152696
    16  C    0.165719
    17  N   -0.092010
    18  H    0.142860
    19  C   -0.088454
    20  C    0.135026
    21  C   -0.215648
    22  C   -0.251184
    23  C   -0.112087
    24  H    0.154458
    25  H    0.156790
    26  H    0.143307
    27  C    0.411160
    28  C    0.028992
    29  C   -0.222324
    30  C   -0.198238
    31  C   -0.157838
    32  H    0.146570
    33  C   -0.156532
    34  H    0.163518
    35  C   -0.152032
    36  H    0.148828
    37  H    0.148635
    38  H    0.150152
    39  F   -0.218864
    40  C   -0.266448
    41  H    0.118572
    42  H    0.111061
    43  H    0.090478
    44  C   -0.042189
    45  C   -0.047129
    46  C    0.015337
    47  H    0.080662
    48  H    0.093581
    49  C    0.011504
    50  H    0.092188
    51  H    0.094885
    52  H    0.079316
    53  H    0.094151
    54  H    0.075241
    55  H    0.096204
    56  N   -0.085593
    57  O   -0.342158
    58  H    0.154220
    59  H    0.242397
 Sum of Mulliken charges =  -0.00000
 Mulliken charges with hydrogens summed into heavy atoms:
               1
     1  N   -0.445157
     2  C    0.337163
     3  C    0.043529
     4  C    0.031870
     5  C    0.185661
     6  O   -0.394638
     7  O   -0.502041
    12  C    0.143828
    13  C   -0.027083
    14  C    0.036702
    15  C   -0.009836
    16  C    0.165719
    17  N    0.150387
    19  C   -0.088454
    20  C    0.135026
    21  C   -0.061190
    22  C   -0.107877
    23  C    0.044703
    27  C    0.411160
    28  C    0.028992
    29  C   -0.075754
    30  C   -0.034720
    31  C   -0.009010
    33  C   -0.007897
    35  C   -0.001880
    39  F   -0.218864
    40  C    0.053662
    44  C    0.132054
    45  C    0.139944
    46  C    0.188804
    49  C    0.182948
    56  N   -0.085593
    57  O   -0.342158
 Electronic spatial extent (au):  <R**2>=          57808.0705
 Charge=             -0.0000 electrons
 Dipole moment (field-independent basis, Debye):
    X=              5.7920    Y=              7.2461    Z=             -1.9952  Tot=              9.4886
 Quadrupole moment (field-independent basis, Debye-Ang):
   XX=           -215.0791   YY=           -257.1283   ZZ=           -135.2262
   XY=            -40.7717   XZ=            -43.9158   YZ=            -40.3567
 Traceless Quadrupole moment (field-independent basis, Debye-Ang):
   XX=            -12.6013   YY=            -54.6504   ZZ=             67.2516
   XY=            -40.7717   XZ=            -43.9158   YZ=            -40.3567
 Octapole moment (field-independent basis, Debye-Ang**2):
  XXX=            239.2428  YYY=           3385.9190  ZZZ=           2314.6916  XYY=            325.7030
  XXY=           1147.1117  XXZ=           1129.0227  XZZ=            398.1978  YZZ=           1056.0662
  YYZ=           1448.4908  XYZ=            287.9362
 Hexadecapole moment (field-independent basis, Debye-Ang**3):
 XXXX=          -4233.0326 YYYY=         -37686.1321 ZZZZ=         -31477.5206 XXXY=          -1276.7852
 XXXZ=           -694.6424 YYYX=          -2366.4524 YYYZ=         -19356.0498 ZZZX=          -3082.9265
 ZZZY=         -15117.4509 XXYY=          -7591.2323 XXZZ=          -7690.7568 YYZZ=         -14661.3312
 XXYZ=          -6165.3599 YYXZ=          -2049.3738 ZZXY=          -2383.3336
 N-N= 3.598815809299D+03 E-N=-1.068901383333D+04  KE= 1.489183289410D+03
 No NMR shielding tensors so no spin-rotation constants.
 Leave Link  601 at Wed Feb 26 21:32:55 2025, MaxMem=  4294967296 cpu:              12.2 elap:               0.7
 (Enter /ihome/crc/install/gaussian/c01/avx2/tar/g16/l9999.exe)
 Unable to Open any file for archive entry.
 1\1\GINC-SMP-N255\SP\RB3LYP\def2TZVPP\C26H26F1N3O3\BIM12\26-Feb-2025\0
 \\#p b3lyp def2tzvpp scf=maxcycle=128 nosymm scrf=(smd,solvent=propyle
 thanoate) empiricaldispersion=gd3bj\\NIH_pre_2\\0,1\N,0,-1.183259,-6.9
 91691,-5.253954\C,0,-0.251057,-7.391225,-4.393446\C,0,-0.814526,-8.066
 464,-3.148411\C,0,-2.314557,-7.899246,-3.338647\C,0,-2.429175,-7.27990
 7,-4.741809\O,0,-3.484009,-7.056261,-5.298253\O,0,0.979562,-7.224476,-
 4.557271\H,0,-0.479987,-9.114196,-3.128871\H,0,-0.402876,-7.572461,-2.
 256313\H,0,-2.764664,-7.19621,-2.62159\H,0,-2.894809,-8.830831,-3.2962
 57\C,0,0.878668,-3.996167,-5.104703\C,0,0.824917,-2.698073,-5.539031\C
 ,0,0.933587,-2.436906,-6.924752\C,0,1.091327,-3.492414,-7.796029\C,0,1
 .160266,-4.834317,-7.322315\N,0,1.070161,-5.020737,-5.981958\H,0,1.145
 376,-3.286528,-8.860259\C,0,0.706451,-4.350855,-3.670015\C,0,-0.462692
 ,-4.035396,-2.947605\C,0,-0.517992,-4.358633,-1.582965\C,0,1.707904,-5
 .301247,-1.653455\C,0,0.551452,-4.98172,-0.944596\H,0,-1.427606,-4.131
 066,-1.025107\H,0,0.482149,-5.22907,0.115785\H,0,2.564238,-5.79133,-1.
 189941\C,0,1.756496,-4.980855,-2.999727\C,0,-1.636808,-3.373694,-3.584
 949\C,0,-2.237197,-2.271454,-2.960506\C,0,-2.174402,-3.847779,-4.79100
 5\C,0,-3.344721,-1.647745,-3.53439\H,0,-1.821641,-1.890142,-2.025155\C
 ,0,-3.287977,-3.229264,-5.355409\H,0,-1.736048,-4.724158,-5.274807\C,0
 ,-3.873555,-2.125636,-4.733371\H,0,-3.795676,-0.784833,-3.041089\H,0,-
 3.706197,-3.625392,-6.282323\H,0,-4.74473,-1.642439,-5.179346\F,0,2.86
 2698,-5.258622,-3.692373\C,0,0.843571,-1.025191,-7.41869\H,0,-0.143993
 ,-0.607376,-7.171185\H,0,1.595678,-0.398886,-6.917263\H,0,0.993258,-0.
 963388,-8.503275\C,0,1.12385,-7.290625,-7.742834\C,0,1.341368,-5.78516
 4,-9.598309\C,0,-0.16306,-7.815444,-8.369163\H,0,1.094963,-7.412617,-6
 .657439\H,0,1.982666,-7.861756,-8.129871\C,0,0.046606,-6.351055,-10.17
 1443\H,0,1.503112,-4.758591,-9.934739\H,0,2.188881,-6.391113,-9.955016
 \H,0,-1.01974,-7.268695,-7.9348\H,0,-0.281356,-8.883195,-8.139789\H,0,
 -0.803229,-5.724793,-9.836277\H,0,0.081681,-6.333893,-11.269392\N,0,1.
 310804,-5.892753,-8.140544\O,0,-0.135859,-7.685245,-9.773464\H,0,0.670
 796,-1.892392,-4.821716\H,0,1.088172,-5.998552,-5.519795\\Version=ES64
 L-G16RevC.01\HF=-1496.9700576\RMSD=6.118e-09\Dipole=2.27873,2.8508215,
 -0.7849768\Quadrupole=-9.3687332,-40.6312112,49.9999443,-30.3127302,-3
 2.6503297,-30.0041882\PG=C01 [X(C26H26F1N3O3)]\\@
 The archive entry for this job was punched.


 BE LIKE A POSTAGE STAMP.  STICK TO ONE THING UNTIL
 YOU GET THERE -- JOSH BILLINGS
 Job cpu time:       0 days  4 hours 49 minutes 54.2 seconds.
 Elapsed time:       0 days  0 hours 12 minutes  8.9 seconds.
 File lengths (MBytes):  RWF=   1290 Int=      0 D2E=      0 Chk=    113 Scr=      1
 Normal termination of Gaussian 16 at Wed Feb 26 21:32:55 2025.
