 Entering Gaussian System, Link 0=g16
 Initial command:
 /opt/packages/gaussian/g16RevC.01/g16/l1.exe "/local/Gau-21477.inp" -scrdir="/local/"
 Entering Link 1 = /opt/packages/gaussian/g16RevC.01/g16/l1.exe PID=     21478.
  
 Copyright (c) 1988-2019, Gaussian, Inc.  All Rights Reserved.
  
 This is part of the Gaussian(R) 16 program.  It is based on
 the Gaussian(R) 09 system (copyright 2009, Gaussian, Inc.),
 the Gaussian(R) 03 system (copyright 2003, Gaussian, Inc.),
 the Gaussian(R) 98 system (copyright 1998, Gaussian, Inc.),
 the Gaussian(R) 94 system (copyright 1995, Gaussian, Inc.),
 the Gaussian 92(TM) system (copyright 1992, Gaussian, Inc.),
 the Gaussian 90(TM) system (copyright 1990, Gaussian, Inc.),
 the Gaussian 88(TM) system (copyright 1988, Gaussian, Inc.),
 the Gaussian 86(TM) system (copyright 1986, Carnegie Mellon
 University), and the Gaussian 82(TM) system (copyright 1983,
 Carnegie Mellon University). Gaussian is a federally registered
 trademark of Gaussian, Inc.
  
 This software contains proprietary and confidential information,
 including trade secrets, belonging to Gaussian, Inc.
  
 This software is provided under written license and may be
 used, copied, transmitted, or stored only in accord with that
 written license.
  
 The following legend is applicable only to US Government
 contracts under FAR:
  
                    RESTRICTED RIGHTS LEGEND
  
 Use, reproduction and disclosure by the US Government is
 subject to restrictions as set forth in subparagraphs (a)
 and (c) of the Commercial Computer Software - Restricted
 Rights clause in FAR 52.227-19.
  
 Gaussian, Inc.
 340 Quinnipiac St., Bldg. 40, Wallingford CT 06492
  
  
 ---------------------------------------------------------------
 Warning -- This program may not be used in any manner that
 competes with the business of Gaussian, Inc. or will provide
 assistance to any competitor of Gaussian, Inc.  The licensee
 of this program is prohibited from giving any competitor of
 Gaussian, Inc. access to this program.  By using this program,
 the user acknowledges that Gaussian, Inc. is engaged in the
 business of creating and licensing software in the field of
 computational chemistry and represents and warrants to the
 licensee that it is not a competitor of Gaussian, Inc. and that
 it will not use this program in any manner prohibited above.
 ---------------------------------------------------------------
  

 Cite this work as:
 Gaussian 16, Revision C.01,
 M. J. Frisch, G. W. Trucks, H. B. Schlegel, G. E. Scuseria, 
 M. A. Robb, J. R. Cheeseman, G. Scalmani, V. Barone, 
 G. A. Petersson, H. Nakatsuji, X. Li, M. Caricato, A. V. Marenich, 
 J. Bloino, B. G. Janesko, R. Gomperts, B. Mennucci, H. P. Hratchian, 
 J. V. Ortiz, A. F. Izmaylov, J. L. Sonnenberg, D. Williams-Young, 
 F. Ding, F. Lipparini, F. Egidi, J. Goings, B. Peng, A. Petrone, 
 T. Henderson, D. Ranasinghe, V. G. Zakrzewski, J. Gao, N. Rega, 
 G. Zheng, W. Liang, M. Hada, M. Ehara, K. Toyota, R. Fukuda, 
 J. Hasegawa, M. Ishida, T. Nakajima, Y. Honda, O. Kitao, H. Nakai, 
 T. Vreven, K. Throssell, J. A. Montgomery, Jr., J. E. Peralta, 
 F. Ogliaro, M. J. Bearpark, J. J. Heyd, E. N. Brothers, K. N. Kudin, 
 V. N. Staroverov, T. A. Keith, R. Kobayashi, J. Normand, 
 K. Raghavachari, A. P. Rendell, J. C. Burant, S. S. Iyengar, 
 J. Tomasi, M. Cossi, J. M. Millam, M. Klene, C. Adamo, R. Cammi, 
 J. W. Ochterski, R. L. Martin, K. Morokuma, O. Farkas, 
 J. B. Foresman, and D. J. Fox, Gaussian, Inc., Wallingford CT, 2019.
 
 ******************************************
 Gaussian 16:  ES64L-G16RevC.01  3-Jul-2019
                 3-Feb-2025 
 ******************************************
 %nprocshared=32
 Will use up to   32 processors via shared memory.
 %mem=54GB
 ----------------------------------------------------------------------
 #p b3lyp def2tzvpp scf=maxcycle=128 nosymm scrf=(smd,solvent=propyleth
 anoate) empiricaldispersion=gd3bj
 ----------------------------------------------------------------------
 1/38=1,172=1/1;
 2/12=2,15=1,17=6,18=5,40=1/2;
 3/5=44,7=202,11=2,25=1,30=1,70=32201,72=169,74=-5,124=41/1,2,3;
 4//1;
 5/5=2,7=128,38=5,53=169/2;
 6/7=2,8=2,9=2,10=2,28=1/1;
 99/5=1,9=1/99;
 Leave Link    1 at Mon Feb  3 14:18:51 2025, MaxMem=  7247757312 cpu:               1.0 elap:               0.0
 (Enter /opt/packages/gaussian/g16RevC.01/g16/l101.exe)
 -------------------
 Title Card Required
 -------------------
 Symbolic Z-matrix:
 Charge =  0 Multiplicity = 1
 N                     0.38489  -5.71147  -4.1714 
 C                     1.5322   -5.76794  -3.40462 
 C                     1.12056  -5.67823  -1.94206 
 C                    -0.39378  -5.48678  -1.96607 
 C                    -0.78074  -5.62137  -3.43064 
 O                    -1.89512  -5.64454  -3.88794 
 O                     2.65589  -5.88255  -3.82875 
 H                     1.43286  -6.60816  -1.44637 
 H                     1.67192  -4.85414  -1.47067 
 H                    -0.70824  -4.48812  -1.63005 
 H                    -0.95354  -6.22507  -1.37773 
 C                    -1.19499  -4.99938  -7.27829 
 C                    -2.10652  -5.19139  -8.3071 
 C                    -1.94373  -6.3075   -9.14782 
 C                    -0.86255  -7.14707  -8.93499 
 C                     0.03947  -6.87059  -7.87496 
 N                    -0.17558  -5.84067  -7.05076 
 H                    -0.70762  -7.99316  -9.60122 
 C                    -1.28294  -3.81479  -6.37319 
 C                    -0.15654  -3.03349  -6.03033 
 C                    -0.29578  -1.99503  -5.09891 
 C                    -2.64846  -2.4639   -4.85086 
 C                    -1.52784  -1.71062  -4.51427 
 H                     0.57744  -1.38937  -4.85099 
 H                    -1.61736  -0.89306  -3.79728 
 H                    -3.62891  -2.28552  -4.40848 
 C                    -2.50044  -3.4953   -5.76562 
 C                     1.18788  -3.28084  -6.62513 
 C                     2.30593  -3.38787  -5.79083 
 C                     1.36499  -3.41136  -8.01102 
 C                     3.57031  -3.64948  -6.32153 
 H                     2.18211  -3.2952   -4.71029 
 C                     2.62567  -3.66645  -8.54195 
 H                     0.50171  -3.32155  -8.67433 
 C                     3.73309  -3.79344  -7.69756 
 H                     4.42451  -3.75481  -5.65067 
 H                     2.74707  -3.76806  -9.62194 
 H                     4.71964  -4.00243  -8.11543 
 F                    -3.5758   -4.23597  -6.04728 
 C                    -2.92092  -6.55884  -10.26112 
 H                    -3.92933  -6.72431  -9.85329 
 H                    -2.98012  -5.68533  -10.927 
 H                    -2.63806  -7.4356   -10.85746 
 C                     1.29936  -8.98699  -8.12063 
 C                     2.06043  -7.27294  -6.56051 
 C                     2.76131  -9.34981  -8.33251 
 H                     0.76678  -9.13932  -9.06558 
 H                     0.86015  -9.66747  -7.36558 
 C                     3.47796  -7.7318   -6.84895 
 H                     2.07093  -6.18692  -6.40797 
 H                     1.70033  -7.74585  -5.62637 
 H                     3.15707  -8.76982  -9.18926 
 H                     2.84818  -10.41969  -8.56548 
 H                     3.89488  -7.12529  -7.67686 
 H                     4.09795  -7.57934  -5.95582 
 N                     1.18464  -7.60626  -7.67546 
 O                     3.52894  -9.09848  -7.18427 
 H                    -2.92899  -4.49219  -8.45865 
 H                     0.35917  -5.76555  -5.20831 
 
 ITRead=  0  0  0  0  0  0  0  0  0  0  0  0  0  0  0  0  0  0  0  0
 ITRead=  0  0  0  0  0  0  0  0  0  0  0  0  0  0  0  0  0  0  0  0
 ITRead=  0  0  0  0  0  0  0  0  0  0  0  0  0  0  0  0  0  0  0
 MicOpt= -1 -1 -1 -1 -1 -1 -1 -1 -1 -1 -1 -1 -1 -1 -1 -1 -1 -1 -1 -1
 MicOpt= -1 -1 -1 -1 -1 -1 -1 -1 -1 -1 -1 -1 -1 -1 -1 -1 -1 -1 -1 -1
 MicOpt= -1 -1 -1 -1 -1 -1 -1 -1 -1 -1 -1 -1 -1 -1 -1 -1 -1 -1 -1
 NAtoms=     59 NQM=       59 NQMF=       0 NMMI=      0 NMMIF=      0
                NMic=       0 NMicF=      0.
                    Isotopes and Nuclear Properties:
 (Nuclear quadrupole moments (NQMom) in fm**2, nuclear magnetic moments (NMagM)
  in nuclear magnetons)

  Atom         1           2           3           4           5           6           7           8           9          10
 IAtWgt=          14          12          12          12          12          16          16           1           1           1
 AtmWgt=  14.0030740  12.0000000  12.0000000  12.0000000  12.0000000  15.9949146  15.9949146   1.0078250   1.0078250   1.0078250
 NucSpn=           2           0           0           0           0           0           0           1           1           1
 AtZEff=   0.0000000   0.0000000   0.0000000   0.0000000   0.0000000   0.0000000   0.0000000   0.0000000   0.0000000   0.0000000
 NQMom=    2.0440000   0.0000000   0.0000000   0.0000000   0.0000000   0.0000000   0.0000000   0.0000000   0.0000000   0.0000000
 NMagM=    0.4037610   0.0000000   0.0000000   0.0000000   0.0000000   0.0000000   0.0000000   2.7928460   2.7928460   2.7928460
 AtZNuc=   7.0000000   6.0000000   6.0000000   6.0000000   6.0000000   8.0000000   8.0000000   1.0000000   1.0000000   1.0000000

  Atom        11          12          13          14          15          16          17          18          19          20
 IAtWgt=           1          12          12          12          12          12          14           1          12          12
 AtmWgt=   1.0078250  12.0000000  12.0000000  12.0000000  12.0000000  12.0000000  14.0030740   1.0078250  12.0000000  12.0000000
 NucSpn=           1           0           0           0           0           0           2           1           0           0
 AtZEff=   0.0000000   0.0000000   0.0000000   0.0000000   0.0000000   0.0000000   0.0000000   0.0000000   0.0000000   0.0000000
 NQMom=    0.0000000   0.0000000   0.0000000   0.0000000   0.0000000   0.0000000   2.0440000   0.0000000   0.0000000   0.0000000
 NMagM=    2.7928460   0.0000000   0.0000000   0.0000000   0.0000000   0.0000000   0.4037610   2.7928460   0.0000000   0.0000000
 AtZNuc=   1.0000000   6.0000000   6.0000000   6.0000000   6.0000000   6.0000000   7.0000000   1.0000000   6.0000000   6.0000000

  Atom        21          22          23          24          25          26          27          28          29          30
 IAtWgt=          12          12          12           1           1           1          12          12          12          12
 AtmWgt=  12.0000000  12.0000000  12.0000000   1.0078250   1.0078250   1.0078250  12.0000000  12.0000000  12.0000000  12.0000000
 NucSpn=           0           0           0           1           1           1           0           0           0           0
 AtZEff=   0.0000000   0.0000000   0.0000000   0.0000000   0.0000000   0.0000000   0.0000000   0.0000000   0.0000000   0.0000000
 NQMom=    0.0000000   0.0000000   0.0000000   0.0000000   0.0000000   0.0000000   0.0000000   0.0000000   0.0000000   0.0000000
 NMagM=    0.0000000   0.0000000   0.0000000   2.7928460   2.7928460   2.7928460   0.0000000   0.0000000   0.0000000   0.0000000
 AtZNuc=   6.0000000   6.0000000   6.0000000   1.0000000   1.0000000   1.0000000   6.0000000   6.0000000   6.0000000   6.0000000

  Atom        31          32          33          34          35          36          37          38          39          40
 IAtWgt=          12           1          12           1          12           1           1           1          19          12
 AtmWgt=  12.0000000   1.0078250  12.0000000   1.0078250  12.0000000   1.0078250   1.0078250   1.0078250  18.9984032  12.0000000
 NucSpn=           0           1           0           1           0           1           1           1           1           0
 AtZEff=   0.0000000   0.0000000   0.0000000   0.0000000   0.0000000   0.0000000   0.0000000   0.0000000   0.0000000   0.0000000
 NQMom=    0.0000000   0.0000000   0.0000000   0.0000000   0.0000000   0.0000000   0.0000000   0.0000000   0.0000000   0.0000000
 NMagM=    0.0000000   2.7928460   0.0000000   2.7928460   0.0000000   2.7928460   2.7928460   2.7928460   2.6288670   0.0000000
 AtZNuc=   6.0000000   1.0000000   6.0000000   1.0000000   6.0000000   1.0000000   1.0000000   1.0000000   9.0000000   6.0000000

  Atom        41          42          43          44          45          46          47          48          49          50
 IAtWgt=           1           1           1          12          12          12           1           1          12           1
 AtmWgt=   1.0078250   1.0078250   1.0078250  12.0000000  12.0000000  12.0000000   1.0078250   1.0078250  12.0000000   1.0078250
 NucSpn=           1           1           1           0           0           0           1           1           0           1
 AtZEff=   0.0000000   0.0000000   0.0000000   0.0000000   0.0000000   0.0000000   0.0000000   0.0000000   0.0000000   0.0000000
 NQMom=    0.0000000   0.0000000   0.0000000   0.0000000   0.0000000   0.0000000   0.0000000   0.0000000   0.0000000   0.0000000
 NMagM=    2.7928460   2.7928460   2.7928460   0.0000000   0.0000000   0.0000000   2.7928460   2.7928460   0.0000000   2.7928460
 AtZNuc=   1.0000000   1.0000000   1.0000000   6.0000000   6.0000000   6.0000000   1.0000000   1.0000000   6.0000000   1.0000000

  Atom        51          52          53          54          55          56          57          58          59
 IAtWgt=           1           1           1           1           1          14          16           1           1
 AtmWgt=   1.0078250   1.0078250   1.0078250   1.0078250   1.0078250  14.0030740  15.9949146   1.0078250   1.0078250
 NucSpn=           1           1           1           1           1           2           0           1           1
 AtZEff=   0.0000000   0.0000000   0.0000000   0.0000000   0.0000000   0.0000000   0.0000000   0.0000000   0.0000000
 NQMom=    0.0000000   0.0000000   0.0000000   0.0000000   0.0000000   2.0440000   0.0000000   0.0000000   0.0000000
 NMagM=    2.7928460   2.7928460   2.7928460   2.7928460   2.7928460   0.4037610   0.0000000   2.7928460   2.7928460
 AtZNuc=   1.0000000   1.0000000   1.0000000   1.0000000   1.0000000   7.0000000   8.0000000   1.0000000   1.0000000
 Leave Link  101 at Mon Feb  3 14:18:52 2025, MaxMem=  7247757312 cpu:               1.9 elap:               0.1
 (Enter /opt/packages/gaussian/g16RevC.01/g16/l202.exe)
 Symmetry turned off by external request.
 Stoichiometry    C26H26FN3O3
 Framework group  C1[X(C26H26FN3O3)]
 Deg. of freedom   171
 Full point group                 C1      NOp   1
                          Input orientation:                          
 ---------------------------------------------------------------------
 Center     Atomic      Atomic             Coordinates (Angstroms)
 Number     Number       Type             X           Y           Z
 ---------------------------------------------------------------------
      1          7           0        0.384890   -5.711468   -4.171404
      2          6           0        1.532202   -5.767941   -3.404620
      3          6           0        1.120564   -5.678227   -1.942057
      4          6           0       -0.393776   -5.486782   -1.966067
      5          6           0       -0.780740   -5.621370   -3.430643
      6          8           0       -1.895116   -5.644544   -3.887939
      7          8           0        2.655886   -5.882550   -3.828751
      8          1           0        1.432857   -6.608156   -1.446369
      9          1           0        1.671919   -4.854138   -1.470670
     10          1           0       -0.708244   -4.488122   -1.630046
     11          1           0       -0.953536   -6.225070   -1.377725
     12          6           0       -1.194985   -4.999383   -7.278288
     13          6           0       -2.106519   -5.191386   -8.307098
     14          6           0       -1.943731   -6.307500   -9.147824
     15          6           0       -0.862550   -7.147067   -8.934986
     16          6           0        0.039469   -6.870587   -7.874961
     17          7           0       -0.175578   -5.840669   -7.050756
     18          1           0       -0.707615   -7.993164   -9.601219
     19          6           0       -1.282943   -3.814791   -6.373189
     20          6           0       -0.156535   -3.033490   -6.030325
     21          6           0       -0.295782   -1.995033   -5.098909
     22          6           0       -2.648462   -2.463899   -4.850859
     23          6           0       -1.527843   -1.710624   -4.514268
     24          1           0        0.577435   -1.389374   -4.850992
     25          1           0       -1.617356   -0.893059   -3.797277
     26          1           0       -3.628906   -2.285521   -4.408484
     27          6           0       -2.500439   -3.495297   -5.765617
     28          6           0        1.187879   -3.280835   -6.625134
     29          6           0        2.305928   -3.387866   -5.790825
     30          6           0        1.364994   -3.411359   -8.011020
     31          6           0        3.570312   -3.649476   -6.321531
     32          1           0        2.182109   -3.295201   -4.710293
     33          6           0        2.625668   -3.666452   -8.541954
     34          1           0        0.501710   -3.321546   -8.674330
     35          6           0        3.733091   -3.793443   -7.697558
     36          1           0        4.424511   -3.754812   -5.650669
     37          1           0        2.747073   -3.768061   -9.621938
     38          1           0        4.719637   -4.002426   -8.115429
     39          9           0       -3.575799   -4.235973   -6.047280
     40          6           0       -2.920923   -6.558844  -10.261123
     41          1           0       -3.929329   -6.724306   -9.853286
     42          1           0       -2.980116   -5.685332  -10.926998
     43          1           0       -2.638056   -7.435602  -10.857456
     44          6           0        1.299363   -8.986988   -8.120633
     45          6           0        2.060426   -7.272939   -6.560508
     46          6           0        2.761313   -9.349812   -8.332506
     47          1           0        0.766778   -9.139318   -9.065575
     48          1           0        0.860151   -9.667475   -7.365584
     49          6           0        3.477956   -7.731799   -6.848950
     50          1           0        2.070933   -6.186920   -6.407966
     51          1           0        1.700330   -7.745850   -5.626372
     52          1           0        3.157072   -8.769824   -9.189264
     53          1           0        2.848183  -10.419689   -8.565482
     54          1           0        3.894883   -7.125286   -7.676863
     55          1           0        4.097955   -7.579337   -5.955819
     56          7           0        1.184639   -7.606260   -7.675465
     57          8           0        3.528939   -9.098479   -7.184271
     58          1           0       -2.928994   -4.492191   -8.458650
     59          1           0        0.359168   -5.765552   -5.208306
 ---------------------------------------------------------------------
 Rotational constants (GHZ):           0.1638615           0.1298900           0.1074861
 Leave Link  202 at Mon Feb  3 14:18:52 2025, MaxMem=  7247757312 cpu:               0.1 elap:               0.0
 (Enter /opt/packages/gaussian/g16RevC.01/g16/l301.exe)
 Standard basis: def2TZVPP (5D, 7F)
 Ernie: Thresh=  0.10000D-02 Tol=  0.10000D-05 Strict=F.
  1387 basis functions,  2125 primitive gaussians,  1578 cartesian basis functions
   118 alpha electrons      118 beta electrons
       nuclear repulsion energy      3608.6761523101 Hartrees.
 IExCor=  402 DFT=T Ex+Corr=B3LYP ExCW=0 ScaHFX=  0.200000
 ScaDFX=  0.800000  0.720000  1.000000  0.810000 ScalE2=  1.000000  1.000000
 IRadAn=      5 IRanWt=     -1 IRanGd=            0 ICorTp=0 IEmpDi=141
 NAtoms=   59 NActive=   59 NUniq=   59 SFac= 1.00D+00 NAtFMM=   60 NAOKFM=F Big=F
 Integral buffers will be    131072 words long.
 Raffenetti 2 integral format.
 Two-electron integral symmetry is turned off.
 R6Disp:  Grimme-D3(BJ) Dispersion energy=       -0.1500256684 Hartrees.
 Nuclear repulsion after empirical dispersion term =     3608.5261266417 Hartrees.
 ------------------------------------------------------------------------------
 Polarizable Continuum Model (PCM)
 =================================
 Model                : PCM.
 Atomic radii         : SMD-Coulomb.
 Polarization charges : Total charges.
 Charge compensation  : None.
 Solution method      : On-the-fly selection.
 Cavity type          : VdW (van der Waals Surface) (Alpha=1.000).
 Cavity algorithm     : GePol (No added spheres)
                        Default sphere list used, NSphG=   59.
                        Lebedev-Laikov grids with approx.  5.0 points / Ang**2.
                        Smoothing algorithm: York/Karplus (Gamma=1.0000).
                        Polarization charges: spherical gaussians, with
                                              point-specific exponents (IZeta= 3).
                        Self-potential: point-specific (ISelfS= 7).
                        Self-field    : sphere-specific E.n sum rule (ISelfD= 2).
 Solvent              : PropylEthanoate, Eps=   5.520500 Eps(inf)=   1.916010
 ------------------------------------------------------------------------------
 GePol: Number of generator spheres                  =      59
 GePol: Total number of spheres                      =      59
 GePol: Number of exposed spheres                    =      59 (100.00%)
 GePol: Number of points                             =    4108
 GePol: Average weight of points                     =       0.11
 GePol: Minimum weight of points                     =   0.16D-11
 GePol: Maximum weight of points                     =    0.21501
 GePol: Number of points with low weight             =     282
 GePol: Fraction of low-weight points (<1% of avg)   =       6.86%
 GePol: Cavity surface area                          =    456.701 Ang**2
 GePol: Cavity volume                                =    492.094 Ang**3
 ------------------------------------------------------------------------------
 Atomic radii for non-electrostatic terms: SMD-CDS.
 ------------------------------------------------------------------------------
 PCM non-electrostatic energy =        -0.0142094963 Hartrees.
 Nuclear repulsion after PCM non-electrostatic terms =     3608.5119171454 Hartrees.
 Leave Link  301 at Mon Feb  3 14:18:52 2025, MaxMem=  7247757312 cpu:               2.6 elap:               0.1
 (Enter /opt/packages/gaussian/g16RevC.01/g16/l302.exe)
 NPDir=0 NMtPBC=     1 NCelOv=     1 NCel=       1 NClECP=     1 NCelD=      1
         NCelK=      1 NCelE2=     1 NClLst=     1 CellRange=     0.0.
 One-electron integrals computed using PRISM.
   1 Symmetry operations used in ECPInt.
 ECPInt:  NShTT=  134940 NPrTT=  377950 LenC2=  112365 LenP2D=  220851.
 LDataN:  DoStor=T MaxTD1= 6 Len=  172
 NBasis=  1387 RedAO= T EigKep=  5.55D-06  NBF=  1387
 NBsUse=  1387 1.00D-06 EigRej= -1.00D+00 NBFU=  1387
 Precomputing XC quadrature grid using
 IXCGrd= 4 IRadAn=           5 IRanWt=          -1 IRanGd=           0 AccXCQ= 0.00D+00.
 Generated NRdTot=       0 NPtTot=           0 NUsed=           0 NTot=          32
 NSgBfM=  1554  1554  1554  1554  1554 MxSgAt=    59 MxSgA2=    59.
 Leave Link  302 at Mon Feb  3 14:18:54 2025, MaxMem=  7247757312 cpu:              82.4 elap:               2.6
 (Enter /opt/packages/gaussian/g16RevC.01/g16/l303.exe)
 DipDrv:  MaxL=1.
 Leave Link  303 at Mon Feb  3 14:18:55 2025, MaxMem=  7247757312 cpu:               6.8 elap:               0.3
 (Enter /opt/packages/gaussian/g16RevC.01/g16/l401.exe)
 ExpMin= 9.52D-02 ExpMax= 3.55D+04 ExpMxC= 1.21D+03 IAcc=3 IRadAn=         5 AccDes= 0.00D+00
 Harris functional with IExCor=  402 and IRadAn=       5 diagonalized for initial guess.
 HarFok:  IExCor=  402 AccDes= 0.00D+00 IRadAn=         5 IDoV= 1 UseB2=F ITyADJ=14
 ICtDFT=  3500011 ScaDFX=  1.000000  1.000000  1.000000  1.000000
 FoFCou: FMM=F IPFlag=           0 FMFlag=      100000 FMFlg1=           0
         NFxFlg=           0 DoJE=T BraDBF=F KetDBF=T FulRan=T
         wScrn=  0.000000 ICntrl=       500 IOpCl=  0 I1Cent=   200000004 NGrid=           0
         NMat0=    1 NMatS0=      1 NMatT0=    0 NMatD0=    1 NMtDS0=    0 NMtDT0=    0
 Symmetry not used in FoFCou.
 Harris En= -1497.00714177700    
 JPrj=0 DoOrth=F DoCkMO=F.
 Leave Link  401 at Mon Feb  3 14:19:00 2025, MaxMem=  7247757312 cpu:             183.6 elap:               5.8
 (Enter /opt/packages/gaussian/g16RevC.01/g16/l502.exe)
 Two-electron integral symmetry not used.
 Closed shell SCF:
 Using DIIS extrapolation, IDIIS=  1040.
 NGot=  7247757312 LenX=  7242715406 LenY=  7240223744
 Requested convergence on RMS density matrix=1.00D-08 within 128 cycles.
 Requested convergence on MAX density matrix=1.00D-06.
 Requested convergence on             energy=1.00D-06.
 No special actions if energy rises.
 Fock matrices will be formed incrementally for  20 cycles.

 Cycle   1  Pass 1  IDiag  1:
 FoFJK:  IHMeth= 1 ICntrl=       0 DoSepK=F KAlg= 0 I1Cent=           0 FoldK=F
 IRaf= 750000000 NMat=       1 IRICut=       1 DoRegI=T DoRafI=F ISym2E= 0 IDoP0=0 IntGTp=1.
 FoFCou: FMM=F IPFlag=           0 FMFlag=      100000 FMFlg1=           0
         NFxFlg=           0 DoJE=F BraDBF=F KetDBF=F FulRan=T
         wScrn=  0.000000 ICntrl=         0 IOpCl=  0 I1Cent=           0 NGrid=           0
         NMat0=    1 NMatS0=      1 NMatT0=    0 NMatD0=    1 NMtDS0=    0 NMtDT0=    0
 Symmetry not used in FoFCou.
 Inv3:  Mode=1 IEnd=    50626992.
 Iteration    1 A*A^-1 deviation from unit magnitude is 3.66D-15 for   1895.
 Iteration    1 A*A^-1 deviation from orthogonality  is 2.55D-15 for   2928   1076.
 Iteration    1 A^-1*A deviation from unit magnitude is 3.66D-15 for   1895.
 Iteration    1 A^-1*A deviation from orthogonality  is 3.10D-15 for   2392   2351.
 E= -1496.20017749461    
 DIIS: error= 1.33D-02 at cycle   1 NSaved=   1.
 NSaved= 1 IEnMin= 1 EnMin= -1496.20017749461     IErMin= 1 ErrMin= 1.33D-02
 ErrMax= 1.33D-02  0.00D+00 EMaxC= 1.00D-01 BMatC= 9.16D-01 BMatP= 9.16D-01
 IDIUse=3 WtCom= 8.67D-01 WtEn= 1.33D-01
 Coeff-Com:  0.100D+01
 Coeff-En:   0.100D+01
 Coeff:      0.100D+01
 Gap=     0.182 Goal=   None    Shift=    0.000
 GapD=    0.182 DampG=1.000 DampE=0.500 DampFc=0.5000 IDamp=-1.
 Damping current iteration by 5.00D-01
 RMSDP=2.98D-03 MaxDP=8.36D-01              OVMax= 2.46D-01

 Cycle   2  Pass 1  IDiag  1:
 RMSU=  1.49D-03    CP:  1.01D+00
 E= -1496.50216762257     Delta-E=       -0.301990127965 Rises=F Damp=T
 DIIS: error= 5.03D-03 at cycle   2 NSaved=   2.
 NSaved= 2 IEnMin= 2 EnMin= -1496.50216762257     IErMin= 2 ErrMin= 5.03D-03
 ErrMax= 5.03D-03  0.00D+00 EMaxC= 1.00D-01 BMatC= 9.92D-02 BMatP= 9.16D-01
 IDIUse=3 WtCom= 9.50D-01 WtEn= 5.03D-02
 Coeff-Com:  0.120D+00 0.880D+00
 Coeff-En:   0.206D+00 0.794D+00
 Coeff:      0.124D+00 0.876D+00
 Gap=     0.247 Goal=   None    Shift=    0.000
 RMSDP=9.55D-04 MaxDP=3.45D-01 DE=-3.02D-01 OVMax= 2.19D-01

 Cycle   3  Pass 1  IDiag  1:
 RMSU=  6.23D-04    CP:  9.94D-01  5.17D-01
 E= -1496.88512538458     Delta-E=       -0.382957762003 Rises=F Damp=F
 DIIS: error= 7.01D-03 at cycle   3 NSaved=   3.
 NSaved= 3 IEnMin= 3 EnMin= -1496.88512538458     IErMin= 2 ErrMin= 5.03D-03
 ErrMax= 7.01D-03  0.00D+00 EMaxC= 1.00D-01 BMatC= 1.35D-01 BMatP= 9.92D-02
 IDIUse=3 WtCom= 1.07D-01 WtEn= 8.93D-01
 Coeff-Com: -0.104D-01 0.546D+00 0.464D+00
 Coeff-En:   0.000D+00 0.000D+00 0.100D+01
 Coeff:     -0.111D-02 0.583D-01 0.943D+00
 Gap=     0.160 Goal=   None    Shift=    0.000
 RMSDP=8.50D-04 MaxDP=2.28D-01 DE=-3.83D-01 OVMax= 2.47D-01

 Cycle   4  Pass 1  IDiag  1:
 RMSU=  5.71D-04    CP:  9.91D-01  7.68D-01  1.86D-01
 E= -1496.52101486705     Delta-E=        0.364110517524 Rises=F Damp=F
 DIIS: error= 1.81D-02 at cycle   4 NSaved=   4.
 NSaved= 4 IEnMin= 3 EnMin= -1496.88512538458     IErMin= 2 ErrMin= 5.03D-03
 ErrMax= 1.81D-02  0.00D+00 EMaxC= 1.00D-01 BMatC= 6.22D-01 BMatP= 9.92D-02
 IDIUse=2 WtCom= 0.00D+00 WtEn= 1.00D+00
 Coeff-En:   0.000D+00 0.000D+00 0.762D+00 0.238D+00
 Coeff:      0.000D+00 0.000D+00 0.762D+00 0.238D+00
 Gap=     0.193 Goal=   None    Shift=    0.000
 RMSDP=4.94D-04 MaxDP=1.59D-01 DE= 3.64D-01 OVMax= 1.11D-01

 Cycle   5  Pass 1  IDiag  1:
 RMSU=  1.13D-04    CP:  9.88D-01  5.57D-01  5.80D-01  5.28D-01
 E= -1496.96012319360     Delta-E=       -0.439108326553 Rises=F Damp=F
 DIIS: error= 3.82D-03 at cycle   5 NSaved=   5.
 NSaved= 5 IEnMin= 5 EnMin= -1496.96012319360     IErMin= 5 ErrMin= 3.82D-03
 ErrMax= 3.82D-03  0.00D+00 EMaxC= 1.00D-01 BMatC= 3.75D-02 BMatP= 9.92D-02
 IDIUse=3 WtCom= 9.62D-01 WtEn= 3.82D-02
 Coeff-Com:  0.380D-02 0.297D-02 0.313D+00-0.282D-01 0.709D+00
 Coeff-En:   0.000D+00 0.000D+00 0.266D+00 0.000D+00 0.734D+00
 Coeff:      0.365D-02 0.286D-02 0.311D+00-0.272D-01 0.710D+00
 Gap=     0.158 Goal=   None    Shift=    0.000
 RMSDP=1.72D-04 MaxDP=3.91D-02 DE=-4.39D-01 OVMax= 3.77D-02

 Cycle   6  Pass 1  IDiag  1:
 RMSU=  4.24D-05    CP:  9.91D-01  5.46D-01  7.54D-01  3.28D-01  5.54D-01
 E= -1496.98808651124     Delta-E=       -0.027963317631 Rises=F Damp=F
 DIIS: error= 2.73D-04 at cycle   6 NSaved=   6.
 NSaved= 6 IEnMin= 6 EnMin= -1496.98808651124     IErMin= 6 ErrMin= 2.73D-04
 ErrMax= 2.73D-04  0.00D+00 EMaxC= 1.00D-01 BMatC= 4.81D-04 BMatP= 3.75D-02
 IDIUse=3 WtCom= 9.97D-01 WtEn= 2.73D-03
 Coeff-Com: -0.157D-03 0.112D-02 0.137D+00-0.455D-01 0.442D+00 0.466D+00
 Coeff-En:   0.000D+00 0.000D+00 0.000D+00 0.000D+00 0.000D+00 0.100D+01
 Coeff:     -0.157D-03 0.112D-02 0.136D+00-0.453D-01 0.441D+00 0.467D+00
 Gap=     0.159 Goal=   None    Shift=    0.000
 RMSDP=2.94D-05 MaxDP=7.84D-03 DE=-2.80D-02 OVMax= 6.24D-03

 Cycle   7  Pass 1  IDiag  1:
 RMSU=  7.87D-06    CP:  9.90D-01  5.39D-01  7.38D-01  3.45D-01  6.86D-01
                    CP:  6.12D-01
 E= -1496.98851963814     Delta-E=       -0.000433126903 Rises=F Damp=F
 DIIS: error= 7.22D-05 at cycle   7 NSaved=   7.
 NSaved= 7 IEnMin= 7 EnMin= -1496.98851963814     IErMin= 7 ErrMin= 7.22D-05
 ErrMax= 7.22D-05  0.00D+00 EMaxC= 1.00D-01 BMatC= 2.10D-05 BMatP= 4.81D-04
 IDIUse=1 WtCom= 1.00D+00 WtEn= 0.00D+00
 Coeff-Com: -0.136D-03 0.640D-03 0.555D-01-0.238D-01 0.194D+00 0.234D+00
 Coeff-Com:  0.540D+00
 Coeff:     -0.136D-03 0.640D-03 0.555D-01-0.238D-01 0.194D+00 0.234D+00
 Coeff:      0.540D+00
 Gap=     0.159 Goal=   None    Shift=    0.000
 RMSDP=4.86D-06 MaxDP=1.07D-03 DE=-4.33D-04 OVMax= 1.09D-03

 Cycle   8  Pass 1  IDiag  1:
 RMSU=  3.56D-06    CP:  9.90D-01  5.39D-01  7.37D-01  3.45D-01  7.05D-01
                    CP:  6.09D-01  6.84D-01
 E= -1496.98853599547     Delta-E=       -0.000016357327 Rises=F Damp=F
 DIIS: error= 2.66D-05 at cycle   8 NSaved=   8.
 NSaved= 8 IEnMin= 8 EnMin= -1496.98853599547     IErMin= 8 ErrMin= 2.66D-05
 ErrMax= 2.66D-05  0.00D+00 EMaxC= 1.00D-01 BMatC= 3.53D-06 BMatP= 2.10D-05
 IDIUse=1 WtCom= 1.00D+00 WtEn= 0.00D+00
 Coeff-Com:  0.111D-03-0.112D-03 0.126D-01-0.669D-02 0.441D-01 0.611D-01
 Coeff-Com:  0.317D+00 0.572D+00
 Coeff:      0.111D-03-0.112D-03 0.126D-01-0.669D-02 0.441D-01 0.611D-01
 Coeff:      0.317D+00 0.572D+00
 Gap=     0.159 Goal=   None    Shift=    0.000
 RMSDP=2.03D-06 MaxDP=3.11D-04 DE=-1.64D-05 OVMax= 5.16D-04

 Cycle   9  Pass 1  IDiag  1:
 RMSU=  1.11D-06    CP:  9.90D-01  5.38D-01  7.38D-01  3.44D-01  7.00D-01
                    CP:  6.05D-01  7.74D-01  7.06D-01
 E= -1496.98853859443     Delta-E=       -0.000002598965 Rises=F Damp=F
 DIIS: error= 9.55D-06 at cycle   9 NSaved=   9.
 NSaved= 9 IEnMin= 9 EnMin= -1496.98853859443     IErMin= 9 ErrMin= 9.55D-06
 ErrMax= 9.55D-06  0.00D+00 EMaxC= 1.00D-01 BMatC= 4.06D-07 BMatP= 3.53D-06
 IDIUse=1 WtCom= 1.00D+00 WtEn= 0.00D+00
 Coeff-Com:  0.116D-03-0.287D-03 0.346D-02-0.203D-02 0.112D-01 0.175D-01
 Coeff-Com:  0.147D+00 0.359D+00 0.464D+00
 Coeff:      0.116D-03-0.287D-03 0.346D-02-0.203D-02 0.112D-01 0.175D-01
 Coeff:      0.147D+00 0.359D+00 0.464D+00
 Gap=     0.159 Goal=   None    Shift=    0.000
 RMSDP=8.11D-07 MaxDP=1.70D-04 DE=-2.60D-06 OVMax= 2.20D-04

 Cycle  10  Pass 1  IDiag  1:
 RMSU=  3.79D-07    CP:  9.90D-01  5.39D-01  7.38D-01  3.44D-01  6.99D-01
                    CP:  6.12D-01  7.75D-01  7.29D-01  6.35D-01
 E= -1496.98853898428     Delta-E=       -0.000000389850 Rises=F Damp=F
 DIIS: error= 2.06D-06 at cycle  10 NSaved=  10.
 NSaved=10 IEnMin=10 EnMin= -1496.98853898428     IErMin=10 ErrMin= 2.06D-06
 ErrMax= 2.06D-06  0.00D+00 EMaxC= 1.00D-01 BMatC= 2.53D-08 BMatP= 4.06D-07
 IDIUse=1 WtCom= 1.00D+00 WtEn= 0.00D+00
 Coeff-Com:  0.556D-04-0.174D-03 0.296D-03-0.207D-03 0.383D-03 0.188D-02
 Coeff-Com:  0.375D-01 0.117D+00 0.248D+00 0.596D+00
 Coeff:      0.556D-04-0.174D-03 0.296D-03-0.207D-03 0.383D-03 0.188D-02
 Coeff:      0.375D-01 0.117D+00 0.248D+00 0.596D+00
 Gap=     0.159 Goal=   None    Shift=    0.000
 RMSDP=1.70D-07 MaxDP=1.88D-05 DE=-3.90D-07 OVMax= 4.40D-05

 Cycle  11  Pass 1  IDiag  1:
 RMSU=  1.15D-07    CP:  9.90D-01  5.38D-01  7.38D-01  3.44D-01  6.99D-01
                    CP:  6.11D-01  7.77D-01  7.33D-01  6.84D-01  7.89D-01
 E= -1496.98853900454     Delta-E=       -0.000000020262 Rises=F Damp=F
 DIIS: error= 7.47D-07 at cycle  11 NSaved=  11.
 NSaved=11 IEnMin=11 EnMin= -1496.98853900454     IErMin=11 ErrMin= 7.47D-07
 ErrMax= 7.47D-07  0.00D+00 EMaxC= 1.00D-01 BMatC= 4.00D-09 BMatP= 2.53D-08
 IDIUse=1 WtCom= 1.00D+00 WtEn= 0.00D+00
 Coeff-Com:  0.201D-04-0.686D-04-0.130D-03 0.469D-04-0.667D-03-0.192D-03
 Coeff-Com:  0.831D-02 0.349D-01 0.100D+00 0.347D+00 0.511D+00
 Coeff:      0.201D-04-0.686D-04-0.130D-03 0.469D-04-0.667D-03-0.192D-03
 Coeff:      0.831D-02 0.349D-01 0.100D+00 0.347D+00 0.511D+00
 Gap=     0.159 Goal=   None    Shift=    0.000
 RMSDP=5.68D-08 MaxDP=4.66D-06 DE=-2.03D-08 OVMax= 1.48D-05

 Cycle  12  Pass 1  IDiag  1:
 RMSU=  3.41D-08    CP:  9.90D-01  5.38D-01  7.38D-01  3.44D-01  6.99D-01
                    CP:  6.12D-01  7.78D-01  7.35D-01  6.93D-01  8.17D-01
                    CP:  6.67D-01
 E= -1496.98853900786     Delta-E=       -0.000000003317 Rises=F Damp=F
 DIIS: error= 2.12D-07 at cycle  12 NSaved=  12.
 NSaved=12 IEnMin=12 EnMin= -1496.98853900786     IErMin=12 ErrMin= 2.12D-07
 ErrMax= 2.12D-07  0.00D+00 EMaxC= 1.00D-01 BMatC= 2.48D-10 BMatP= 4.00D-09
 IDIUse=1 WtCom= 1.00D+00 WtEn= 0.00D+00
 Coeff-Com:  0.252D-05-0.111D-04-0.110D-03 0.414D-04-0.369D-03-0.207D-03
 Coeff-Com:  0.292D-03 0.566D-02 0.223D-01 0.993D-01 0.229D+00 0.644D+00
 Coeff:      0.252D-05-0.111D-04-0.110D-03 0.414D-04-0.369D-03-0.207D-03
 Coeff:      0.292D-03 0.566D-02 0.223D-01 0.993D-01 0.229D+00 0.644D+00
 Gap=     0.159 Goal=   None    Shift=    0.000
 RMSDP=1.73D-08 MaxDP=2.75D-06 DE=-3.32D-09 OVMax= 2.89D-06

 Cycle  13  Pass 1  IDiag  1:
 RMSU=  1.13D-08    CP:  9.90D-01  5.38D-01  7.38D-01  3.44D-01  6.99D-01
                    CP:  6.12D-01  7.78D-01  7.35D-01  6.94D-01  8.23D-01
                    CP:  6.98D-01  8.54D-01
 E= -1496.98853900807     Delta-E=       -0.000000000211 Rises=F Damp=F
 DIIS: error= 1.06D-07 at cycle  13 NSaved=  13.
 NSaved=13 IEnMin=13 EnMin= -1496.98853900807     IErMin=13 ErrMin= 1.06D-07
 ErrMax= 1.06D-07  0.00D+00 EMaxC= 1.00D-01 BMatC= 3.98D-11 BMatP= 2.48D-10
 IDIUse=1 WtCom= 1.00D+00 WtEn= 0.00D+00
 Coeff-Com: -0.114D-05 0.194D-05-0.536D-04 0.192D-04-0.146D-03-0.823D-04
 Coeff-Com: -0.752D-03-0.376D-03 0.207D-02 0.197D-01 0.764D-01 0.360D+00
 Coeff-Com:  0.544D+00
 Coeff:     -0.114D-05 0.194D-05-0.536D-04 0.192D-04-0.146D-03-0.823D-04
 Coeff:     -0.752D-03-0.376D-03 0.207D-02 0.197D-01 0.764D-01 0.360D+00
 Coeff:      0.544D+00
 Gap=     0.159 Goal=   None    Shift=    0.000
 RMSDP=6.09D-09 MaxDP=5.45D-07 DE=-2.11D-10 OVMax= 1.13D-06

 Error on total polarization charges =  0.05571
 SCF Done:  E(RB3LYP) =  -1496.98853901     A.U. after   13 cycles
            NFock= 13  Conv=0.61D-08     -V/T= 2.0052
 KE= 1.489216448781D+03 PE=-1.070916433428D+04 EE= 4.114447429348D+03
 SMD-CDS (non-electrostatic) energy       (kcal/mol) =      -8.92
 (included in total energy above)
 Leave Link  502 at Mon Feb  3 14:38:10 2025, MaxMem=  7247757312 cpu:           36465.7 elap:            1149.4
 (Enter /opt/packages/gaussian/g16RevC.01/g16/l601.exe)
 Copying SCF densities to generalized density rwf, IOpCl= 0 IROHF=0.

 **********************************************************************

            Population analysis using the SCF Density.

 **********************************************************************

 Alpha  occ. eigenvalues --  -24.69315 -19.12705 -19.10595 -19.10569 -14.34630
 Alpha  occ. eigenvalues --  -14.33425 -14.30318 -10.28206 -10.28079 -10.25899
 Alpha  occ. eigenvalues --  -10.24481 -10.21736 -10.21374 -10.20818 -10.20066
 Alpha  occ. eigenvalues --  -10.19498 -10.19425 -10.19097 -10.18897 -10.18501
 Alpha  occ. eigenvalues --  -10.18278 -10.18252 -10.18199 -10.17791 -10.17536
 Alpha  occ. eigenvalues --  -10.17314 -10.17262 -10.17239 -10.17210 -10.17166
 Alpha  occ. eigenvalues --  -10.17024 -10.16667 -10.16421  -1.23332  -1.06248
 Alpha  occ. eigenvalues --   -1.04599  -1.04577  -0.97578  -0.94107  -0.91848
 Alpha  occ. eigenvalues --   -0.87317  -0.84970  -0.81607  -0.79114  -0.78901
 Alpha  occ. eigenvalues --   -0.77532  -0.77284  -0.74385  -0.74049  -0.72446
 Alpha  occ. eigenvalues --   -0.70671  -0.69308  -0.68321  -0.66118  -0.64061
 Alpha  occ. eigenvalues --   -0.63075  -0.61241  -0.60711  -0.60119  -0.59572
 Alpha  occ. eigenvalues --   -0.59195  -0.57889  -0.56004  -0.54186  -0.52815
 Alpha  occ. eigenvalues --   -0.51322  -0.50368  -0.49509  -0.49373  -0.48861
 Alpha  occ. eigenvalues --   -0.48754  -0.48010  -0.47651  -0.47278  -0.46361
 Alpha  occ. eigenvalues --   -0.45646  -0.45340  -0.44976  -0.44933  -0.44499
 Alpha  occ. eigenvalues --   -0.44299  -0.43618  -0.43080  -0.42313  -0.42122
 Alpha  occ. eigenvalues --   -0.41790  -0.41296  -0.41121  -0.40922  -0.40523
 Alpha  occ. eigenvalues --   -0.40060  -0.39535  -0.39097  -0.38901  -0.38317
 Alpha  occ. eigenvalues --   -0.37398  -0.37281  -0.37020  -0.36430  -0.35556
 Alpha  occ. eigenvalues --   -0.35312  -0.35031  -0.34045  -0.33953  -0.33502
 Alpha  occ. eigenvalues --   -0.31178  -0.30226  -0.29100  -0.28702  -0.27830
 Alpha  occ. eigenvalues --   -0.27479  -0.26548  -0.26136  -0.25816  -0.25075
 Alpha  occ. eigenvalues --   -0.24530  -0.23127  -0.20473
 Alpha virt. eigenvalues --   -0.04617  -0.02771  -0.01539  -0.01480  -0.00635
 Alpha virt. eigenvalues --    0.00765   0.01311   0.02582   0.03312   0.04360
 Alpha virt. eigenvalues --    0.05306   0.05846   0.06298   0.06964   0.07335
 Alpha virt. eigenvalues --    0.07939   0.08382   0.08536   0.09042   0.09404
 Alpha virt. eigenvalues --    0.09896   0.10044   0.10419   0.10817   0.10904
 Alpha virt. eigenvalues --    0.11251   0.11567   0.11875   0.12560   0.12654
 Alpha virt. eigenvalues --    0.12940   0.13087   0.13723   0.13881   0.14170
 Alpha virt. eigenvalues --    0.14433   0.14713   0.14980   0.15360   0.15513
 Alpha virt. eigenvalues --    0.15871   0.16131   0.16611   0.16706   0.17535
 Alpha virt. eigenvalues --    0.18076   0.18391   0.19005   0.19246   0.19314
 Alpha virt. eigenvalues --    0.19790   0.20133   0.20432   0.20814   0.20956
 Alpha virt. eigenvalues --    0.21394   0.21900   0.22340   0.22404   0.22757
 Alpha virt. eigenvalues --    0.23172   0.23305   0.23614   0.24551   0.24652
 Alpha virt. eigenvalues --    0.25348   0.25512   0.25757   0.26244   0.26534
 Alpha virt. eigenvalues --    0.26886   0.27126   0.27861   0.28004   0.28533
 Alpha virt. eigenvalues --    0.28681   0.28982   0.29170   0.29307   0.30222
 Alpha virt. eigenvalues --    0.30310   0.30710   0.30876   0.31117   0.31238
 Alpha virt. eigenvalues --    0.31361   0.31965   0.32454   0.32700   0.33155
 Alpha virt. eigenvalues --    0.33183   0.33650   0.33825   0.34229   0.34441
 Alpha virt. eigenvalues --    0.34817   0.35226   0.35537   0.35693   0.36124
 Alpha virt. eigenvalues --    0.36244   0.36433   0.36865   0.37278   0.37415
 Alpha virt. eigenvalues --    0.37721   0.37999   0.38235   0.38680   0.39018
 Alpha virt. eigenvalues --    0.39278   0.39402   0.39780   0.39991   0.40208
 Alpha virt. eigenvalues --    0.40535   0.40857   0.41263   0.41616   0.41816
 Alpha virt. eigenvalues --    0.42050   0.42280   0.42750   0.43085   0.43225
 Alpha virt. eigenvalues --    0.43428   0.43563   0.44099   0.44208   0.44491
 Alpha virt. eigenvalues --    0.44680   0.44906   0.45266   0.45541   0.45772
 Alpha virt. eigenvalues --    0.45848   0.46284   0.46480   0.46890   0.47202
 Alpha virt. eigenvalues --    0.47382   0.47703   0.47956   0.48138   0.48425
 Alpha virt. eigenvalues --    0.48718   0.49098   0.49386   0.49720   0.49864
 Alpha virt. eigenvalues --    0.50125   0.50812   0.51023   0.51359   0.51806
 Alpha virt. eigenvalues --    0.51975   0.52191   0.52444   0.52948   0.53442
 Alpha virt. eigenvalues --    0.53778   0.54287   0.54710   0.54959   0.55404
 Alpha virt. eigenvalues --    0.55879   0.56332   0.56368   0.56690   0.57015
 Alpha virt. eigenvalues --    0.57563   0.58032   0.58531   0.59716   0.59812
 Alpha virt. eigenvalues --    0.60635   0.61321   0.61464   0.61886   0.62001
 Alpha virt. eigenvalues --    0.62908   0.63195   0.63401   0.64131   0.64275
 Alpha virt. eigenvalues --    0.64947   0.65326   0.65468   0.66215   0.66437
 Alpha virt. eigenvalues --    0.66865   0.67405   0.67822   0.68068   0.68391
 Alpha virt. eigenvalues --    0.68876   0.69239   0.69415   0.69891   0.69953
 Alpha virt. eigenvalues --    0.70224   0.70615   0.70799   0.71315   0.71515
 Alpha virt. eigenvalues --    0.72276   0.72960   0.73299   0.73392   0.73989
 Alpha virt. eigenvalues --    0.74192   0.74843   0.75069   0.75737   0.76245
 Alpha virt. eigenvalues --    0.76661   0.77139   0.77251   0.77696   0.78193
 Alpha virt. eigenvalues --    0.78654   0.79290   0.79603   0.79885   0.80459
 Alpha virt. eigenvalues --    0.80677   0.81239   0.81350   0.82072   0.82388
 Alpha virt. eigenvalues --    0.82804   0.83037   0.83313   0.83964   0.84058
 Alpha virt. eigenvalues --    0.84502   0.85025   0.85630   0.86357   0.86675
 Alpha virt. eigenvalues --    0.86896   0.87487   0.87980   0.88348   0.88608
 Alpha virt. eigenvalues --    0.89123   0.89314   0.89887   0.90193   0.90395
 Alpha virt. eigenvalues --    0.90830   0.91026   0.91387   0.91701   0.92123
 Alpha virt. eigenvalues --    0.92871   0.93132   0.93646   0.93807   0.94300
 Alpha virt. eigenvalues --    0.94791   0.95276   0.95514   0.95700   0.96693
 Alpha virt. eigenvalues --    0.97101   0.97466   0.97836   0.98505   0.99175
 Alpha virt. eigenvalues --    0.99389   0.99649   0.99895   1.00216   1.00709
 Alpha virt. eigenvalues --    1.01015   1.01534   1.01843   1.02398   1.02980
 Alpha virt. eigenvalues --    1.03769   1.04014   1.04272   1.04863   1.05350
 Alpha virt. eigenvalues --    1.05526   1.05847   1.06140   1.06311   1.06922
 Alpha virt. eigenvalues --    1.07578   1.07735   1.08199   1.08282   1.08858
 Alpha virt. eigenvalues --    1.09239   1.09300   1.09611   1.09861   1.10681
 Alpha virt. eigenvalues --    1.11052   1.11430   1.11600   1.12132   1.12742
 Alpha virt. eigenvalues --    1.12876   1.13059   1.13833   1.14105   1.14347
 Alpha virt. eigenvalues --    1.14823   1.15128   1.15574   1.15754   1.16177
 Alpha virt. eigenvalues --    1.16695   1.17038   1.17178   1.17607   1.18157
 Alpha virt. eigenvalues --    1.18280   1.18853   1.19064   1.19544   1.20618
 Alpha virt. eigenvalues --    1.20961   1.21528   1.21975   1.22348   1.22769
 Alpha virt. eigenvalues --    1.22968   1.23620   1.23646   1.24500   1.24702
 Alpha virt. eigenvalues --    1.24945   1.25509   1.25861   1.26622   1.26952
 Alpha virt. eigenvalues --    1.27227   1.27594   1.27912   1.28557   1.28825
 Alpha virt. eigenvalues --    1.29049   1.29708   1.29769   1.30027   1.30267
 Alpha virt. eigenvalues --    1.30937   1.31177   1.31610   1.32645   1.33046
 Alpha virt. eigenvalues --    1.33567   1.33838   1.34286   1.34499   1.35260
 Alpha virt. eigenvalues --    1.35727   1.36045   1.36392   1.36671   1.37349
 Alpha virt. eigenvalues --    1.37529   1.37704   1.38507   1.38805   1.39184
 Alpha virt. eigenvalues --    1.39638   1.39785   1.40084   1.40777   1.41485
 Alpha virt. eigenvalues --    1.41717   1.41926   1.42470   1.43053   1.43223
 Alpha virt. eigenvalues --    1.43523   1.44001   1.44221   1.44395   1.44684
 Alpha virt. eigenvalues --    1.44908   1.45090   1.45838   1.46243   1.46443
 Alpha virt. eigenvalues --    1.46963   1.47093   1.47558   1.47883   1.48229
 Alpha virt. eigenvalues --    1.48569   1.49276   1.49424   1.50040   1.50514
 Alpha virt. eigenvalues --    1.50675   1.51014   1.51522   1.51890   1.53062
 Alpha virt. eigenvalues --    1.53605   1.54622   1.54740   1.54894   1.56031
 Alpha virt. eigenvalues --    1.56630   1.56697   1.57202   1.57894   1.58122
 Alpha virt. eigenvalues --    1.58423   1.59027   1.59534   1.60046   1.60613
 Alpha virt. eigenvalues --    1.61119   1.61441   1.62150   1.62634   1.63624
 Alpha virt. eigenvalues --    1.63700   1.64220   1.64583   1.65207   1.65452
 Alpha virt. eigenvalues --    1.65616   1.66095   1.66921   1.67329   1.68328
 Alpha virt. eigenvalues --    1.68397   1.68536   1.69024   1.69755   1.69970
 Alpha virt. eigenvalues --    1.70583   1.71236   1.71871   1.72333   1.72449
 Alpha virt. eigenvalues --    1.73076   1.73666   1.75184   1.75567   1.75872
 Alpha virt. eigenvalues --    1.76607   1.76832   1.77082   1.77885   1.78687
 Alpha virt. eigenvalues --    1.78913   1.79780   1.80277   1.80907   1.81708
 Alpha virt. eigenvalues --    1.82152   1.83288   1.83537   1.84098   1.85020
 Alpha virt. eigenvalues --    1.85527   1.86657   1.87437   1.87835   1.88260
 Alpha virt. eigenvalues --    1.88486   1.88894   1.89567   1.89747   1.90763
 Alpha virt. eigenvalues --    1.92317   1.92800   1.93262   1.93541   1.93826
 Alpha virt. eigenvalues --    1.94965   1.95523   1.96175   1.97051   1.97106
 Alpha virt. eigenvalues --    1.97519   1.98895   2.00248   2.00427   2.01229
 Alpha virt. eigenvalues --    2.01651   2.02086   2.02697   2.04175   2.04583
 Alpha virt. eigenvalues --    2.04927   2.05088   2.05545   2.07057   2.07240
 Alpha virt. eigenvalues --    2.07595   2.08557   2.08668   2.08686   2.09526
 Alpha virt. eigenvalues --    2.10842   2.11416   2.11701   2.12375   2.12729
 Alpha virt. eigenvalues --    2.13845   2.14204   2.14672   2.15282   2.16328
 Alpha virt. eigenvalues --    2.16660   2.17283   2.17869   2.18404   2.19529
 Alpha virt. eigenvalues --    2.20407   2.20920   2.21614   2.22049   2.23367
 Alpha virt. eigenvalues --    2.23691   2.25154   2.25538   2.26479   2.26975
 Alpha virt. eigenvalues --    2.27304   2.27607   2.29411   2.29767   2.30287
 Alpha virt. eigenvalues --    2.30574   2.31283   2.31972   2.32814   2.33166
 Alpha virt. eigenvalues --    2.34246   2.35627   2.35855   2.36481   2.37094
 Alpha virt. eigenvalues --    2.37501   2.38225   2.38522   2.38858   2.39359
 Alpha virt. eigenvalues --    2.39822   2.41116   2.42016   2.42277   2.43437
 Alpha virt. eigenvalues --    2.43535   2.44536   2.44869   2.45616   2.45810
 Alpha virt. eigenvalues --    2.46993   2.47854   2.48864   2.49647   2.50590
 Alpha virt. eigenvalues --    2.51808   2.52157   2.52540   2.54185   2.56237
 Alpha virt. eigenvalues --    2.56925   2.57378   2.57579   2.57911   2.58547
 Alpha virt. eigenvalues --    2.59391   2.59526   2.59726   2.61102   2.61746
 Alpha virt. eigenvalues --    2.62517   2.62937   2.63638   2.65043   2.65532
 Alpha virt. eigenvalues --    2.65823   2.66716   2.66978   2.67449   2.68078
 Alpha virt. eigenvalues --    2.68743   2.69536   2.70588   2.70889   2.71176
 Alpha virt. eigenvalues --    2.71773   2.72171   2.73319   2.73414   2.73777
 Alpha virt. eigenvalues --    2.73974   2.74442   2.74965   2.75018   2.75940
 Alpha virt. eigenvalues --    2.76811   2.77191   2.77373   2.77713   2.78232
 Alpha virt. eigenvalues --    2.79155   2.79227   2.79669   2.79854   2.80828
 Alpha virt. eigenvalues --    2.81022   2.81622   2.81913   2.82201   2.82475
 Alpha virt. eigenvalues --    2.82887   2.83234   2.83732   2.84150   2.84733
 Alpha virt. eigenvalues --    2.84885   2.85445   2.85979   2.86281   2.87163
 Alpha virt. eigenvalues --    2.87738   2.87847   2.88497   2.89100   2.89906
 Alpha virt. eigenvalues --    2.90331   2.90469   2.91060   2.91545   2.92270
 Alpha virt. eigenvalues --    2.92570   2.92821   2.93343   2.93901   2.94628
 Alpha virt. eigenvalues --    2.94928   2.95413   2.96024   2.96631   2.96796
 Alpha virt. eigenvalues --    2.97426   2.98233   2.98781   2.99037   2.99692
 Alpha virt. eigenvalues --    2.99832   3.00476   3.00523   3.00971   3.01114
 Alpha virt. eigenvalues --    3.01468   3.01997   3.02290   3.02524   3.02702
 Alpha virt. eigenvalues --    3.02982   3.03299   3.03533   3.04351   3.04630
 Alpha virt. eigenvalues --    3.04880   3.05462   3.05771   3.06050   3.06417
 Alpha virt. eigenvalues --    3.06717   3.07101   3.07348   3.07660   3.08140
 Alpha virt. eigenvalues --    3.08226   3.08969   3.09129   3.09478   3.09924
 Alpha virt. eigenvalues --    3.10157   3.10611   3.11140   3.11674   3.11691
 Alpha virt. eigenvalues --    3.12042   3.12352   3.12824   3.13123   3.13537
 Alpha virt. eigenvalues --    3.13793   3.14086   3.14166   3.14934   3.14960
 Alpha virt. eigenvalues --    3.15099   3.15925   3.16052   3.16372   3.16900
 Alpha virt. eigenvalues --    3.17174   3.17390   3.17672   3.18108   3.18811
 Alpha virt. eigenvalues --    3.19014   3.19383   3.19622   3.19937   3.20266
 Alpha virt. eigenvalues --    3.20618   3.20982   3.21134   3.21506   3.21834
 Alpha virt. eigenvalues --    3.22692   3.22860   3.23369   3.23748   3.23973
 Alpha virt. eigenvalues --    3.24490   3.24931   3.25323   3.25808   3.26417
 Alpha virt. eigenvalues --    3.26579   3.27027   3.27491   3.27779   3.28304
 Alpha virt. eigenvalues --    3.28572   3.29163   3.29803   3.30069   3.30377
 Alpha virt. eigenvalues --    3.30718   3.31159   3.31571   3.32365   3.32882
 Alpha virt. eigenvalues --    3.33078   3.33948   3.34021   3.34341   3.35056
 Alpha virt. eigenvalues --    3.35119   3.35564   3.35804   3.35922   3.36641
 Alpha virt. eigenvalues --    3.37427   3.37677   3.38363   3.38598   3.38946
 Alpha virt. eigenvalues --    3.39444   3.39933   3.40202   3.40840   3.41112
 Alpha virt. eigenvalues --    3.41393   3.41667   3.42063   3.42229   3.42564
 Alpha virt. eigenvalues --    3.42889   3.43154   3.43708   3.43802   3.44896
 Alpha virt. eigenvalues --    3.45581   3.46264   3.46533   3.47048   3.47290
 Alpha virt. eigenvalues --    3.47484   3.48074   3.48293   3.48509   3.49116
 Alpha virt. eigenvalues --    3.49264   3.49609   3.50252   3.50455   3.51219
 Alpha virt. eigenvalues --    3.51483   3.52091   3.52477   3.52664   3.52981
 Alpha virt. eigenvalues --    3.53764   3.53892   3.54188   3.55108   3.55288
 Alpha virt. eigenvalues --    3.55441   3.56249   3.56576   3.57105   3.57192
 Alpha virt. eigenvalues --    3.57886   3.58334   3.58456   3.58858   3.59197
 Alpha virt. eigenvalues --    3.59694   3.60440   3.60980   3.61579   3.62048
 Alpha virt. eigenvalues --    3.62810   3.63065   3.63702   3.64155   3.64353
 Alpha virt. eigenvalues --    3.64880   3.65281   3.66138   3.66455   3.66805
 Alpha virt. eigenvalues --    3.67258   3.67425   3.68351   3.68857   3.69447
 Alpha virt. eigenvalues --    3.69743   3.70287   3.70610   3.70791   3.71262
 Alpha virt. eigenvalues --    3.71526   3.72014   3.72802   3.73550   3.73945
 Alpha virt. eigenvalues --    3.74772   3.75199   3.75430   3.76001   3.76506
 Alpha virt. eigenvalues --    3.76693   3.77061   3.77574   3.77718   3.78244
 Alpha virt. eigenvalues --    3.78381   3.79037   3.79381   3.79965   3.80269
 Alpha virt. eigenvalues --    3.80864   3.81087   3.81547   3.81821   3.82387
 Alpha virt. eigenvalues --    3.83092   3.83317   3.83843   3.84131   3.84725
 Alpha virt. eigenvalues --    3.85419   3.85662   3.85961   3.86407   3.87155
 Alpha virt. eigenvalues --    3.87485   3.88033   3.88636   3.89338   3.89755
 Alpha virt. eigenvalues --    3.90083   3.90307   3.90853   3.91083   3.91719
 Alpha virt. eigenvalues --    3.92075   3.92460   3.93199   3.94283   3.95012
 Alpha virt. eigenvalues --    3.95508   3.95822   3.96165   3.96908   3.97527
 Alpha virt. eigenvalues --    3.97687   3.98393   3.98949   3.99980   4.00260
 Alpha virt. eigenvalues --    4.00725   4.01038   4.01637   4.01877   4.02224
 Alpha virt. eigenvalues --    4.02516   4.03160   4.03912   4.04102   4.04711
 Alpha virt. eigenvalues --    4.04945   4.05602   4.06511   4.07000   4.07536
 Alpha virt. eigenvalues --    4.07988   4.08448   4.08945   4.09161   4.10102
 Alpha virt. eigenvalues --    4.10244   4.10515   4.10900   4.11210   4.11586
 Alpha virt. eigenvalues --    4.12439   4.12475   4.12971   4.13412   4.13937
 Alpha virt. eigenvalues --    4.14119   4.14712   4.15332   4.15649   4.15999
 Alpha virt. eigenvalues --    4.16314   4.16544   4.16849   4.17942   4.18490
 Alpha virt. eigenvalues --    4.18829   4.19096   4.19813   4.20280   4.20632
 Alpha virt. eigenvalues --    4.21317   4.21655   4.22179   4.22757   4.23111
 Alpha virt. eigenvalues --    4.23470   4.23873   4.24236   4.24759   4.24847
 Alpha virt. eigenvalues --    4.25445   4.25689   4.25934   4.26761   4.26864
 Alpha virt. eigenvalues --    4.27629   4.28232   4.28442   4.29046   4.29178
 Alpha virt. eigenvalues --    4.29541   4.29733   4.30457   4.30923   4.31099
 Alpha virt. eigenvalues --    4.32100   4.32389   4.32935   4.33256   4.33774
 Alpha virt. eigenvalues --    4.34472   4.35035   4.35248   4.36262   4.36677
 Alpha virt. eigenvalues --    4.37116   4.37610   4.38607   4.39089   4.39333
 Alpha virt. eigenvalues --    4.40130   4.40486   4.40638   4.41205   4.42464
 Alpha virt. eigenvalues --    4.42922   4.43646   4.43961   4.44628   4.45669
 Alpha virt. eigenvalues --    4.46055   4.46941   4.47549   4.48616   4.48749
 Alpha virt. eigenvalues --    4.49310   4.50333   4.51341   4.51637   4.53113
 Alpha virt. eigenvalues --    4.53993   4.54451   4.54739   4.55869   4.56995
 Alpha virt. eigenvalues --    4.57690   4.58457   4.59348   4.60173   4.60356
 Alpha virt. eigenvalues --    4.60631   4.61518   4.62445   4.63030   4.63742
 Alpha virt. eigenvalues --    4.64339   4.65678   4.65691   4.66412   4.66635
 Alpha virt. eigenvalues --    4.67462   4.67694   4.68399   4.68946   4.69477
 Alpha virt. eigenvalues --    4.69847   4.70374   4.71433   4.72108   4.72251
 Alpha virt. eigenvalues --    4.73074   4.73566   4.74464   4.74868   4.75328
 Alpha virt. eigenvalues --    4.76303   4.76729   4.77227   4.77488   4.78001
 Alpha virt. eigenvalues --    4.78759   4.79164   4.79764   4.80701   4.81289
 Alpha virt. eigenvalues --    4.81853   4.83059   4.83150   4.83678   4.84271
 Alpha virt. eigenvalues --    4.84733   4.85567   4.86725   4.87403   4.88308
 Alpha virt. eigenvalues --    4.89209   4.89749   4.90546   4.90984   4.93074
 Alpha virt. eigenvalues --    4.93976   4.95179   4.95771   4.96173   4.96562
 Alpha virt. eigenvalues --    4.98517   4.98793   4.99326   5.00242   5.00468
 Alpha virt. eigenvalues --    5.01179   5.01299   5.02186   5.02998   5.03683
 Alpha virt. eigenvalues --    5.04023   5.04149   5.05731   5.06553   5.07215
 Alpha virt. eigenvalues --    5.07622   5.08396   5.09238   5.10198   5.10550
 Alpha virt. eigenvalues --    5.11432   5.12063   5.13104   5.14546   5.14782
 Alpha virt. eigenvalues --    5.15037   5.16730   5.17124   5.18707   5.19052
 Alpha virt. eigenvalues --    5.19354   5.20198   5.20715   5.21361   5.22249
 Alpha virt. eigenvalues --    5.22827   5.22987   5.23597   5.24466   5.25523
 Alpha virt. eigenvalues --    5.25878   5.27557   5.27633   5.28478   5.29621
 Alpha virt. eigenvalues --    5.30113   5.30557   5.31622   5.32089   5.32307
 Alpha virt. eigenvalues --    5.32902   5.34672   5.34900   5.35419   5.35778
 Alpha virt. eigenvalues --    5.36407   5.36953   5.37328   5.38313   5.39653
 Alpha virt. eigenvalues --    5.40085   5.40298   5.41675   5.42061   5.42841
 Alpha virt. eigenvalues --    5.43780   5.44380   5.44954   5.45411   5.46837
 Alpha virt. eigenvalues --    5.47324   5.48151   5.49544   5.49794   5.49857
 Alpha virt. eigenvalues --    5.50722   5.51260   5.51525   5.52558   5.52687
 Alpha virt. eigenvalues --    5.53627   5.54502   5.54962   5.56562   5.56736
 Alpha virt. eigenvalues --    5.58417   5.58438   5.60206   5.62233   5.62437
 Alpha virt. eigenvalues --    5.62627   5.63779   5.64248   5.65125   5.65845
 Alpha virt. eigenvalues --    5.66484   5.68448   5.68797   5.70872   5.71585
 Alpha virt. eigenvalues --    5.72229   5.73569   5.74140   5.74348   5.74673
 Alpha virt. eigenvalues --    5.75251   5.76466   5.77551   5.81055   5.82651
 Alpha virt. eigenvalues --    5.83375   5.84933   5.86269   5.86821   5.87071
 Alpha virt. eigenvalues --    5.89128   5.95322   5.98395   6.00241   6.02022
 Alpha virt. eigenvalues --    6.03365   6.04345   6.05287   6.07268   6.09084
 Alpha virt. eigenvalues --    6.09527   6.13650   6.15613   6.20319   6.21130
 Alpha virt. eigenvalues --    6.22919   6.26321   6.27349   6.29882   6.36169
 Alpha virt. eigenvalues --    6.38896   6.42743   6.47175   6.48063   6.48418
 Alpha virt. eigenvalues --    6.50257   6.59142   6.60764   6.66621   6.67376
 Alpha virt. eigenvalues --    6.68145   6.77350   6.85853   6.86637   6.88367
 Alpha virt. eigenvalues --    6.88527   6.88935   6.92981   6.97842   6.99118
 Alpha virt. eigenvalues --    7.02714   7.09807   7.11917   7.14737   7.16257
 Alpha virt. eigenvalues --    7.20649   7.26073   7.35604   7.41740   7.47011
 Alpha virt. eigenvalues --    7.66111   8.37496   8.57845   8.78196   9.03503
 Alpha virt. eigenvalues --    9.04785  22.63173  22.84992  22.91520  23.04825
 Alpha virt. eigenvalues --   23.05524  23.08252  23.13045  23.15330  23.17878
 Alpha virt. eigenvalues --   23.18952  23.21124  23.24907  23.27070  23.30222
 Alpha virt. eigenvalues --   23.30813  23.38128  23.39779  23.40890  23.42053
 Alpha virt. eigenvalues --   23.44661  23.52621  23.58442  23.60657  23.71995
 Alpha virt. eigenvalues --   23.90243  24.13214  32.88443  32.98432  33.28104
 Alpha virt. eigenvalues --   44.03970  44.07615  44.28800  57.46518
          Condensed to atoms (all electrons):
 Mulliken charges:
               1
     1  N   -0.163442
     2  C    0.203280
     3  C   -0.080226
     4  C   -0.109664
     5  C    0.207221
     6  O   -0.358538
     7  O   -0.369577
     8  H    0.099085
     9  H    0.093384
    10  H    0.099955
    11  H    0.094515
    12  C    0.205034
    13  C   -0.221289
    14  C    0.012023
    15  C   -0.172206
    16  C    0.162050
    17  N   -0.366002
    18  H    0.130764
    19  C   -0.132359
    20  C    0.133459
    21  C   -0.195928
    22  C   -0.221397
    23  C   -0.138312
    24  H    0.150848
    25  H    0.153682
    26  H    0.139357
    27  C    0.356749
    28  C    0.088866
    29  C   -0.176619
    30  C   -0.208658
    31  C   -0.149220
    32  H    0.136631
    33  C   -0.147095
    34  H    0.150254
    35  C   -0.175224
    36  H    0.138494
    37  H    0.146831
    38  H    0.148148
    39  F   -0.227774
    40  C   -0.270181
    41  H    0.108272
    42  H    0.104450
    43  H    0.086174
    44  C   -0.037256
    45  C    0.022035
    46  C    0.020285
    47  H    0.085817
    48  H    0.066537
    49  C   -0.031044
    50  H    0.086955
    51  H    0.068121
    52  H    0.057515
    53  H    0.093620
    54  H    0.067419
    55  H    0.102880
    56  N   -0.109004
    57  O   -0.341819
    58  H    0.128236
    59  H    0.253889
 Sum of Mulliken charges =   0.00000
 Mulliken charges with hydrogens summed into heavy atoms:
               1
     1  N    0.090447
     2  C    0.203280
     3  C    0.112242
     4  C    0.084807
     5  C    0.207221
     6  O   -0.358538
     7  O   -0.369577
    12  C    0.205034
    13  C   -0.093053
    14  C    0.012023
    15  C   -0.041442
    16  C    0.162050
    17  N   -0.366002
    19  C   -0.132359
    20  C    0.133459
    21  C   -0.045080
    22  C   -0.082040
    23  C    0.015369
    27  C    0.356749
    28  C    0.088866
    29  C   -0.039988
    30  C   -0.058404
    31  C   -0.010726
    33  C   -0.000265
    35  C   -0.027077
    39  F   -0.227774
    40  C    0.028715
    44  C    0.115098
    45  C    0.177110
    46  C    0.171420
    49  C    0.139255
    56  N   -0.109004
    57  O   -0.341819
 Electronic spatial extent (au):  <R**2>=          69668.7042
 Charge=              0.0000 electrons
 Dipole moment (field-independent basis, Debye):
    X=             -0.2227    Y=             -0.1573    Z=             -0.6365  Tot=              0.6925
 Quadrupole moment (field-independent basis, Debye-Ang):
   XX=           -207.2933   YY=           -184.1769   ZZ=           -150.5496
   XY=              4.1131   XZ=              3.9767   YZ=             20.3835
 Traceless Quadrupole moment (field-independent basis, Debye-Ang):
   XX=            -26.6200   YY=             -3.5036   ZZ=             30.1237
   XY=              4.1131   XZ=              3.9767   YZ=             20.3835
 Octapole moment (field-independent basis, Debye-Ang**2):
  XXX=           -223.5089  YYY=           2946.9748  ZZZ=           2985.9894  XYY=           -152.8517
  XXY=           1152.9758  XXZ=           1260.7296  XZZ=           -116.5219  YZZ=            576.3962
  YYZ=            977.6738  XYZ=            -40.7559
 Hexadecapole moment (field-independent basis, Debye-Ang**3):
 XXXX=          -5629.8535 YYYY=         -36325.0697 ZZZZ=         -43570.5260 XXXY=           2030.4526
 XXXZ=           1413.5090 YYYX=           2837.9229 YYYZ=         -17660.3481 ZZZX=           1873.0116
 ZZZY=         -14286.8681 XXYY=          -8334.0754 XXZZ=          -9443.5533 YYZZ=         -10855.5148
 XXYZ=          -7194.8258 YYXZ=           1012.4715 ZZXY=            954.6540
 N-N= 3.608511917145D+03 E-N=-1.070916428400D+04  KE= 1.489216448781D+03
 No NMR shielding tensors so no spin-rotation constants.
 Leave Link  601 at Mon Feb  3 14:38:11 2025, MaxMem=  7247757312 cpu:              19.6 elap:               0.9
 (Enter /opt/packages/gaussian/g16RevC.01/g16/l9999.exe)
 Unable to Open any file for archive entry.
 1\1\GINC-R237\SP\RB3LYP\def2TZVPP\C26H26F1N3O3\BIM2\03-Feb-2025\0\\#p 
 b3lyp def2tzvpp scf=maxcycle=128 nosymm scrf=(smd,solvent=propylethano
 ate) empiricaldispersion=gd3bj\\Title Card Required\\0,1\N,0,0.38489,-
 5.711468,-4.171404\C,0,1.532202,-5.767941,-3.40462\C,0,1.120564,-5.678
 227,-1.942057\C,0,-0.393776,-5.486782,-1.966067\C,0,-0.78074,-5.62137,
 -3.430643\O,0,-1.895116,-5.644544,-3.887939\O,0,2.655886,-5.88255,-3.8
 28751\H,0,1.432857,-6.608156,-1.446369\H,0,1.671919,-4.854138,-1.47067
 \H,0,-0.708244,-4.488122,-1.630046\H,0,-0.953536,-6.22507,-1.377725\C,
 0,-1.194985,-4.999383,-7.278288\C,0,-2.106519,-5.191386,-8.307098\C,0,
 -1.943731,-6.3075,-9.147824\C,0,-0.86255,-7.147067,-8.934986\C,0,0.039
 469,-6.870587,-7.874961\N,0,-0.175578,-5.840669,-7.050756\H,0,-0.70761
 5,-7.993164,-9.601219\C,0,-1.282943,-3.814791,-6.373189\C,0,-0.156535,
 -3.03349,-6.030325\C,0,-0.295782,-1.995033,-5.098909\C,0,-2.648462,-2.
 463899,-4.850859\C,0,-1.527843,-1.710624,-4.514268\H,0,0.577435,-1.389
 374,-4.850992\H,0,-1.617356,-0.893059,-3.797277\H,0,-3.628906,-2.28552
 1,-4.408484\C,0,-2.500439,-3.495297,-5.765617\C,0,1.187879,-3.280835,-
 6.625134\C,0,2.305928,-3.387866,-5.790825\C,0,1.364994,-3.411359,-8.01
 102\C,0,3.570312,-3.649476,-6.321531\H,0,2.182109,-3.295201,-4.710293\
 C,0,2.625668,-3.666452,-8.541954\H,0,0.50171,-3.321546,-8.67433\C,0,3.
 733091,-3.793443,-7.697558\H,0,4.424511,-3.754812,-5.650669\H,0,2.7470
 73,-3.768061,-9.621938\H,0,4.719637,-4.002426,-8.115429\F,0,-3.575799,
 -4.235973,-6.04728\C,0,-2.920923,-6.558844,-10.261123\H,0,-3.929329,-6
 .724306,-9.853286\H,0,-2.980116,-5.685332,-10.926998\H,0,-2.638056,-7.
 435602,-10.857456\C,0,1.299363,-8.986988,-8.120633\C,0,2.060426,-7.272
 939,-6.560508\C,0,2.761313,-9.349812,-8.332506\H,0,0.766778,-9.139318,
 -9.065575\H,0,0.860151,-9.667475,-7.365584\C,0,3.477956,-7.731799,-6.8
 4895\H,0,2.070933,-6.18692,-6.407966\H,0,1.70033,-7.74585,-5.626372\H,
 0,3.157072,-8.769824,-9.189264\H,0,2.848183,-10.419689,-8.565482\H,0,3
 .894883,-7.125286,-7.676863\H,0,4.097955,-7.579337,-5.955819\N,0,1.184
 639,-7.60626,-7.675465\O,0,3.528939,-9.098479,-7.184271\H,0,-2.928994,
 -4.492191,-8.45865\H,0,0.359168,-5.765552,-5.208306\\Version=ES64L-G16
 RevC.01\HF=-1496.988539\RMSD=6.085e-09\Dipole=-0.0876179,-0.0618907,-0
 .2504255\Quadrupole=-19.7913459,-2.6048568,22.3962028,3.0579873,2.9565
 748,15.1546197\PG=C01 [X(C26H26F1N3O3)]\\@
 The archive entry for this job was punched.


 IN THE UNIVERSE THE DIFFICULT THINGS ARE DONE AS IF THEY WERE EASY.

                                                          -- LAO-TSU
 Job cpu time:       0 days 10 hours 12 minutes 47.2 seconds.
 Elapsed time:       0 days  0 hours 19 minutes 19.3 seconds.
 File lengths (MBytes):  RWF=   1276 Int=      0 D2E=      0 Chk=    113 Scr=      1
 Normal termination of Gaussian 16 at Mon Feb  3 14:38:11 2025.
