 Entering Gaussian System, Link 0=g16
 Initial command:
 /ihome/crc/install/gaussian/c01/avx2/tar/g16/l1.exe "/scratch/slurm-18021262/Gau-14412.inp" -scrdir="/scratch/slurm-18021262/"
 Entering Link 1 = /ihome/crc/install/gaussian/c01/avx2/tar/g16/l1.exe PID=     14413.
  
 Copyright (c) 1988-2019, Gaussian, Inc.  All Rights Reserved.
  
 This is part of the Gaussian(R) 16 program.  It is based on
 the Gaussian(R) 09 system (copyright 2009, Gaussian, Inc.),
 the Gaussian(R) 03 system (copyright 2003, Gaussian, Inc.),
 the Gaussian(R) 98 system (copyright 1998, Gaussian, Inc.),
 the Gaussian(R) 94 system (copyright 1995, Gaussian, Inc.),
 the Gaussian 92(TM) system (copyright 1992, Gaussian, Inc.),
 the Gaussian 90(TM) system (copyright 1990, Gaussian, Inc.),
 the Gaussian 88(TM) system (copyright 1988, Gaussian, Inc.),
 the Gaussian 86(TM) system (copyright 1986, Carnegie Mellon
 University), and the Gaussian 82(TM) system (copyright 1983,
 Carnegie Mellon University). Gaussian is a federally registered
 trademark of Gaussian, Inc.
  
 This software contains proprietary and confidential information,
 including trade secrets, belonging to Gaussian, Inc.
  
 This software is provided under written license and may be
 used, copied, transmitted, or stored only in accord with that
 written license.
  
 The following legend is applicable only to US Government
 contracts under FAR:
  
                    RESTRICTED RIGHTS LEGEND
  
 Use, reproduction and disclosure by the US Government is
 subject to restrictions as set forth in subparagraphs (a)
 and (c) of the Commercial Computer Software - Restricted
 Rights clause in FAR 52.227-19.
  
 Gaussian, Inc.
 340 Quinnipiac St., Bldg. 40, Wallingford CT 06492
  
  
 ---------------------------------------------------------------
 Warning -- This program may not be used in any manner that
 competes with the business of Gaussian, Inc. or will provide
 assistance to any competitor of Gaussian, Inc.  The licensee
 of this program is prohibited from giving any competitor of
 Gaussian, Inc. access to this program.  By using this program,
 the user acknowledges that Gaussian, Inc. is engaged in the
 business of creating and licensing software in the field of
 computational chemistry and represents and warrants to the
 licensee that it is not a competitor of Gaussian, Inc. and that
 it will not use this program in any manner prohibited above.
 ---------------------------------------------------------------
  

 Cite this work as:
 Gaussian 16, Revision C.01,
 M. J. Frisch, G. W. Trucks, H. B. Schlegel, G. E. Scuseria, 
 M. A. Robb, J. R. Cheeseman, G. Scalmani, V. Barone, 
 G. A. Petersson, H. Nakatsuji, X. Li, M. Caricato, A. V. Marenich, 
 J. Bloino, B. G. Janesko, R. Gomperts, B. Mennucci, H. P. Hratchian, 
 J. V. Ortiz, A. F. Izmaylov, J. L. Sonnenberg, D. Williams-Young, 
 F. Ding, F. Lipparini, F. Egidi, J. Goings, B. Peng, A. Petrone, 
 T. Henderson, D. Ranasinghe, V. G. Zakrzewski, J. Gao, N. Rega, 
 G. Zheng, W. Liang, M. Hada, M. Ehara, K. Toyota, R. Fukuda, 
 J. Hasegawa, M. Ishida, T. Nakajima, Y. Honda, O. Kitao, H. Nakai, 
 T. Vreven, K. Throssell, J. A. Montgomery, Jr., J. E. Peralta, 
 F. Ogliaro, M. J. Bearpark, J. J. Heyd, E. N. Brothers, K. N. Kudin, 
 V. N. Staroverov, T. A. Keith, R. Kobayashi, J. Normand, 
 K. Raghavachari, A. P. Rendell, J. C. Burant, S. S. Iyengar, 
 J. Tomasi, M. Cossi, J. M. Millam, M. Klene, C. Adamo, R. Cammi, 
 J. W. Ochterski, R. L. Martin, K. Morokuma, O. Farkas, 
 J. B. Foresman, and D. J. Fox, Gaussian, Inc., Wallingford CT, 2019.
 
 ******************************************
 Gaussian 16:  ES64L-G16RevC.01  3-Jul-2019
                 5-Feb-2025 
 ******************************************
 %nprocshared=16
 Will use up to   16 processors via shared memory.
 %mem=28GB
 ----------------------------------------------------------------------
 #p b3lyp def2tzvpp scf=maxcycle=128 nosymm scrf=(smd,solvent=propyleth
 anoate) empiricaldispersion=gd3bj
 ----------------------------------------------------------------------
 1/38=1,172=1/1;
 2/12=2,15=1,17=6,18=5,40=1/2;
 3/5=44,7=202,11=2,25=1,30=1,70=32201,72=169,74=-5,124=41/1,2,3;
 4//1;
 5/5=2,7=128,38=5,53=169/2;
 6/7=2,8=2,9=2,10=2,28=1/1;
 99/5=1,9=1/99;
 Leave Link    1 at Wed Feb  5 03:49:54 2025, MaxMem=  3758096384 cpu:               0.4 elap:               0.0
 (Enter /ihome/crc/install/gaussian/c01/avx2/tar/g16/l101.exe)
 ------------------------
 noalkyne_S-ax-R_00_pre_3
 ------------------------
 Symbolic Z-matrix:
 Charge =  0 Multiplicity = 1
 C                     3.44509   0.51134  -0.70019 
 C                     4.71295   0.60183  -0.14669 
 C                     5.28182  -0.54956   0.42601 
 C                     4.57462  -1.74655   0.37601 
 C                     3.30406  -1.77291  -0.23612 
 N                     2.77061  -0.64582  -0.72644 
 H                     5.01498  -2.65709   0.77967 
 C                     2.72577   1.67669  -1.29063 
 C                     2.44304   2.86471  -0.58373 
 C                     1.77522   3.90591  -1.24197 
 C                     1.64657   2.61298  -3.27726 
 C                     1.37872   3.7813   -2.57119 
 H                     1.53598   4.81369  -0.68596 
 H                     0.84531   4.59839  -3.05894 
 H                     1.35036   2.47491  -4.31729 
 C                     2.31337   1.58828  -2.62383 
 C                     2.80717   3.02818   0.85097 
 C                     2.51867   2.0215    1.78334 
 C                     3.4215    4.20588   1.29696 
 C                     2.84483   2.18645   3.12759 
 H                     2.02489   1.10348   1.45982 
 C                     3.75005   4.36927   2.64299 
 H                     3.6587    4.99414   0.57921 
 C                     3.46449   3.35983   3.5621 
 H                     2.61143   1.39081   3.83826 
 H                     4.23651   5.28901   2.97276 
 H                     3.72311   3.48697   4.6148 
 F                     2.60964   0.48281  -3.31189 
 C                     6.63708  -0.47333   1.06735 
 H                     6.98447  -1.45966   1.39915 
 H                     7.37336  -0.05482   0.36605 
 H                     6.601     0.19691   1.93957 
 C                     2.88862  -4.11844   0.35151 
 C                     1.80584  -3.14728  -1.60344 
 C                     1.64422  -4.98174   0.5171 
 H                     3.27872  -3.86709   1.34679 
 H                     3.66601  -4.68228  -0.20075 
 C                     0.61787  -4.05397  -1.3444 
 H                     1.47347  -2.20175  -2.04757 
 H                     2.48876  -3.64371  -2.32008 
 H                     0.9357   -4.46076   1.18868 
 H                     1.91569  -5.94537   0.96903 
 H                    -0.12152  -3.52728  -0.71344 
 H                     0.14269  -4.32775  -2.2964 
 N                     2.52675  -2.9001   -0.3515 
 O                     1.02975  -5.24966  -0.71817 
 H                     1.29868  -0.60335  -0.63123 
 C                    -5.39917   2.94092   0.5739 
 C                    -4.63556   1.8266    0.32638 
 C                    -3.43308   1.59168   1.05349 
 C                    -3.02417   2.55447   2.02473 
 C                    -3.84317   3.693     2.26373 
 C                    -5.00565   3.88113   1.55906 
 H                    -6.31428   3.10746   0.00363 
 H                    -4.94534   1.11795  -0.44219 
 C                    -2.61163   0.44099   0.81888 
 C                    -1.79903   2.37758   2.72177 
 H                    -3.52028   4.4169    3.01444 
 H                    -5.62533   4.75938   1.74687 
 C                    -0.99478   1.30053   2.45561 
 C                    -1.41361   0.34097   1.50516 
 H                    -1.49713   3.12284   3.45984 
 C                    -3.02684  -0.58937  -0.18419 
 C                    -2.28549  -0.82643  -1.32858 
 C                    -4.18256  -1.40299   0.05497 
 C                    -2.64292  -1.80661  -2.28357 
 C                    -4.56198  -2.37746  -0.91658 
 C                    -4.95532  -1.29363   1.24691 
 C                    -3.77475  -2.55344  -2.08628 
 C                    -5.7151   -3.17794  -0.68614 
 C                    -6.05869  -2.08748   1.44333 
 H                    -4.66008  -0.57826   2.01483 
 H                    -4.07667  -3.30512  -2.81774 
 C                    -6.45025  -3.03415   0.46377 
 H                    -5.99647  -3.91405  -1.44168 
 H                    -6.63598  -1.99309   2.36429 
 H                    -7.3316   -3.65464   0.63339 
 S                    -0.28603  -0.96454   1.11477 
 O                    -0.99834  -2.19936   1.13246 
 O                     0.88586  -0.84881   1.9234 
 S                    -0.7674    0.0405   -1.58774 
 O                    -0.98561   1.43265  -1.38483 
 O                    -0.17416  -0.38404  -2.81561 
 N                     0.1827   -0.58378  -0.40647 
 H                     5.24283   1.55514  -0.13784 
 H                    -2.01283  -1.94357  -3.16212 
 H                    -0.04013   1.16457   2.96296 
 
 ITRead=  0  0  0  0  0  0  0  0  0  0  0  0  0  0  0  0  0  0  0  0
 ITRead=  0  0  0  0  0  0  0  0  0  0  0  0  0  0  0  0  0  0  0  0
 ITRead=  0  0  0  0  0  0  0  0  0  0  0  0  0  0  0  0  0  0  0  0
 ITRead=  0  0  0  0  0  0  0  0  0  0  0  0  0  0  0  0  0  0  0  0
 ITRead=  0  0  0  0  0  0  0
 MicOpt= -1 -1 -1 -1 -1 -1 -1 -1 -1 -1 -1 -1 -1 -1 -1 -1 -1 -1 -1 -1
 MicOpt= -1 -1 -1 -1 -1 -1 -1 -1 -1 -1 -1 -1 -1 -1 -1 -1 -1 -1 -1 -1
 MicOpt= -1 -1 -1 -1 -1 -1 -1 -1 -1 -1 -1 -1 -1 -1 -1 -1 -1 -1 -1 -1
 MicOpt= -1 -1 -1 -1 -1 -1 -1 -1 -1 -1 -1 -1 -1 -1 -1 -1 -1 -1 -1 -1
 MicOpt= -1 -1 -1 -1 -1 -1 -1
 NAtoms=     87 NQM=       87 NQMF=       0 NMMI=      0 NMMIF=      0
                NMic=       0 NMicF=      0.
                    Isotopes and Nuclear Properties:
 (Nuclear quadrupole moments (NQMom) in fm**2, nuclear magnetic moments (NMagM)
  in nuclear magnetons)

  Atom         1           2           3           4           5           6           7           8           9          10
 IAtWgt=          12          12          12          12          12          14           1          12          12          12
 AtmWgt=  12.0000000  12.0000000  12.0000000  12.0000000  12.0000000  14.0030740   1.0078250  12.0000000  12.0000000  12.0000000
 NucSpn=           0           0           0           0           0           2           1           0           0           0
 AtZEff=  -0.0000000  -0.0000000  -0.0000000  -0.0000000  -0.0000000  -0.0000000  -0.0000000  -0.0000000  -0.0000000  -0.0000000
 NQMom=    0.0000000   0.0000000   0.0000000   0.0000000   0.0000000   2.0440000   0.0000000   0.0000000   0.0000000   0.0000000
 NMagM=    0.0000000   0.0000000   0.0000000   0.0000000   0.0000000   0.4037610   2.7928460   0.0000000   0.0000000   0.0000000
 AtZNuc=   6.0000000   6.0000000   6.0000000   6.0000000   6.0000000   7.0000000   1.0000000   6.0000000   6.0000000   6.0000000

  Atom        11          12          13          14          15          16          17          18          19          20
 IAtWgt=          12          12           1           1           1          12          12          12          12          12
 AtmWgt=  12.0000000  12.0000000   1.0078250   1.0078250   1.0078250  12.0000000  12.0000000  12.0000000  12.0000000  12.0000000
 NucSpn=           0           0           1           1           1           0           0           0           0           0
 AtZEff=  -0.0000000  -0.0000000  -0.0000000  -0.0000000  -0.0000000  -0.0000000  -0.0000000  -0.0000000  -0.0000000  -0.0000000
 NQMom=    0.0000000   0.0000000   0.0000000   0.0000000   0.0000000   0.0000000   0.0000000   0.0000000   0.0000000   0.0000000
 NMagM=    0.0000000   0.0000000   2.7928460   2.7928460   2.7928460   0.0000000   0.0000000   0.0000000   0.0000000   0.0000000
 AtZNuc=   6.0000000   6.0000000   1.0000000   1.0000000   1.0000000   6.0000000   6.0000000   6.0000000   6.0000000   6.0000000

  Atom        21          22          23          24          25          26          27          28          29          30
 IAtWgt=           1          12           1          12           1           1           1          19          12           1
 AtmWgt=   1.0078250  12.0000000   1.0078250  12.0000000   1.0078250   1.0078250   1.0078250  18.9984032  12.0000000   1.0078250
 NucSpn=           1           0           1           0           1           1           1           1           0           1
 AtZEff=  -0.0000000  -0.0000000  -0.0000000  -0.0000000  -0.0000000  -0.0000000  -0.0000000  -0.0000000  -0.0000000  -0.0000000
 NQMom=    0.0000000   0.0000000   0.0000000   0.0000000   0.0000000   0.0000000   0.0000000   0.0000000   0.0000000   0.0000000
 NMagM=    2.7928460   0.0000000   2.7928460   0.0000000   2.7928460   2.7928460   2.7928460   2.6288670   0.0000000   2.7928460
 AtZNuc=   1.0000000   6.0000000   1.0000000   6.0000000   1.0000000   1.0000000   1.0000000   9.0000000   6.0000000   1.0000000

  Atom        31          32          33          34          35          36          37          38          39          40
 IAtWgt=           1           1          12          12          12           1           1          12           1           1
 AtmWgt=   1.0078250   1.0078250  12.0000000  12.0000000  12.0000000   1.0078250   1.0078250  12.0000000   1.0078250   1.0078250
 NucSpn=           1           1           0           0           0           1           1           0           1           1
 AtZEff=  -0.0000000  -0.0000000  -0.0000000  -0.0000000  -0.0000000  -0.0000000  -0.0000000  -0.0000000  -0.0000000  -0.0000000
 NQMom=    0.0000000   0.0000000   0.0000000   0.0000000   0.0000000   0.0000000   0.0000000   0.0000000   0.0000000   0.0000000
 NMagM=    2.7928460   2.7928460   0.0000000   0.0000000   0.0000000   2.7928460   2.7928460   0.0000000   2.7928460   2.7928460
 AtZNuc=   1.0000000   1.0000000   6.0000000   6.0000000   6.0000000   1.0000000   1.0000000   6.0000000   1.0000000   1.0000000

  Atom        41          42          43          44          45          46          47          48          49          50
 IAtWgt=           1           1           1           1          14          16           1          12          12          12
 AtmWgt=   1.0078250   1.0078250   1.0078250   1.0078250  14.0030740  15.9949146   1.0078250  12.0000000  12.0000000  12.0000000
 NucSpn=           1           1           1           1           2           0           1           0           0           0
 AtZEff=  -0.0000000  -0.0000000  -0.0000000  -0.0000000  -0.0000000  -0.0000000  -0.0000000  -0.0000000  -0.0000000  -0.0000000
 NQMom=    0.0000000   0.0000000   0.0000000   0.0000000   2.0440000   0.0000000   0.0000000   0.0000000   0.0000000   0.0000000
 NMagM=    2.7928460   2.7928460   2.7928460   2.7928460   0.4037610   0.0000000   2.7928460   0.0000000   0.0000000   0.0000000
 AtZNuc=   1.0000000   1.0000000   1.0000000   1.0000000   7.0000000   8.0000000   1.0000000   6.0000000   6.0000000   6.0000000

  Atom        51          52          53          54          55          56          57          58          59          60
 IAtWgt=          12          12          12           1           1          12          12           1           1          12
 AtmWgt=  12.0000000  12.0000000  12.0000000   1.0078250   1.0078250  12.0000000  12.0000000   1.0078250   1.0078250  12.0000000
 NucSpn=           0           0           0           1           1           0           0           1           1           0
 AtZEff=  -0.0000000  -0.0000000  -0.0000000  -0.0000000  -0.0000000  -0.0000000  -0.0000000  -0.0000000  -0.0000000  -0.0000000
 NQMom=    0.0000000   0.0000000   0.0000000   0.0000000   0.0000000   0.0000000   0.0000000   0.0000000   0.0000000   0.0000000
 NMagM=    0.0000000   0.0000000   0.0000000   2.7928460   2.7928460   0.0000000   0.0000000   2.7928460   2.7928460   0.0000000
 AtZNuc=   6.0000000   6.0000000   6.0000000   1.0000000   1.0000000   6.0000000   6.0000000   1.0000000   1.0000000   6.0000000

  Atom        61          62          63          64          65          66          67          68          69          70
 IAtWgt=          12           1          12          12          12          12          12          12          12          12
 AtmWgt=  12.0000000   1.0078250  12.0000000  12.0000000  12.0000000  12.0000000  12.0000000  12.0000000  12.0000000  12.0000000
 NucSpn=           0           1           0           0           0           0           0           0           0           0
 AtZEff=  -0.0000000  -0.0000000  -0.0000000  -0.0000000  -0.0000000  -0.0000000  -0.0000000  -0.0000000  -0.0000000  -0.0000000
 NQMom=    0.0000000   0.0000000   0.0000000   0.0000000   0.0000000   0.0000000   0.0000000   0.0000000   0.0000000   0.0000000
 NMagM=    0.0000000   2.7928460   0.0000000   0.0000000   0.0000000   0.0000000   0.0000000   0.0000000   0.0000000   0.0000000
 AtZNuc=   6.0000000   1.0000000   6.0000000   6.0000000   6.0000000   6.0000000   6.0000000   6.0000000   6.0000000   6.0000000

  Atom        71          72          73          74          75          76          77          78          79          80
 IAtWgt=          12           1           1          12           1           1           1          32          16          16
 AtmWgt=  12.0000000   1.0078250   1.0078250  12.0000000   1.0078250   1.0078250   1.0078250  31.9720718  15.9949146  15.9949146
 NucSpn=           0           1           1           0           1           1           1           0           0           0
 AtZEff=  -0.0000000  -0.0000000  -0.0000000  -0.0000000  -0.0000000  -0.0000000  -0.0000000  -0.0000000  -0.0000000  -0.0000000
 NQMom=    0.0000000   0.0000000   0.0000000   0.0000000   0.0000000   0.0000000   0.0000000   0.0000000   0.0000000   0.0000000
 NMagM=    0.0000000   2.7928460   2.7928460   0.0000000   2.7928460   2.7928460   2.7928460   0.0000000   0.0000000   0.0000000
 AtZNuc=   6.0000000   1.0000000   1.0000000   6.0000000   1.0000000   1.0000000   1.0000000  16.0000000   8.0000000   8.0000000

  Atom        81          82          83          84          85          86          87
 IAtWgt=          32          16          16          14           1           1           1
 AtmWgt=  31.9720718  15.9949146  15.9949146  14.0030740   1.0078250   1.0078250   1.0078250
 NucSpn=           0           0           0           2           1           1           1
 AtZEff=  -0.0000000  -0.0000000  -0.0000000  -0.0000000  -0.0000000  -0.0000000  -0.0000000
 NQMom=    0.0000000   0.0000000   0.0000000   2.0440000   0.0000000   0.0000000   0.0000000
 NMagM=    0.0000000   0.0000000   0.0000000   0.4037610   2.7928460   2.7928460   2.7928460
 AtZNuc=  16.0000000   8.0000000   8.0000000   7.0000000   1.0000000   1.0000000   1.0000000
 Leave Link  101 at Wed Feb  5 03:49:55 2025, MaxMem=  3758096384 cpu:               0.7 elap:               0.1
 (Enter /ihome/crc/install/gaussian/c01/avx2/tar/g16/l202.exe)
 Symmetry turned off by external request.
 Stoichiometry    C42H34FN3O5S2
 Framework group  C1[X(C42H34FN3O5S2)]
 Deg. of freedom   255
 Full point group                 C1      NOp   1
                          Input orientation:                          
 ---------------------------------------------------------------------
 Center     Atomic      Atomic             Coordinates (Angstroms)
 Number     Number       Type             X           Y           Z
 ---------------------------------------------------------------------
      1          6           0        3.445088    0.511339   -0.700193
      2          6           0        4.712948    0.601826   -0.146691
      3          6           0        5.281824   -0.549563    0.426011
      4          6           0        4.574615   -1.746554    0.376009
      5          6           0        3.304061   -1.772914   -0.236122
      6          7           0        2.770612   -0.645820   -0.726440
      7          1           0        5.014976   -2.657086    0.779672
      8          6           0        2.725765    1.676692   -1.290625
      9          6           0        2.443041    2.864711   -0.583734
     10          6           0        1.775224    3.905910   -1.241974
     11          6           0        1.646570    2.612982   -3.277263
     12          6           0        1.378720    3.781298   -2.571187
     13          1           0        1.535982    4.813685   -0.685958
     14          1           0        0.845305    4.598390   -3.058943
     15          1           0        1.350364    2.474907   -4.317291
     16          6           0        2.313368    1.588277   -2.623830
     17          6           0        2.807173    3.028177    0.850969
     18          6           0        2.518674    2.021498    1.783343
     19          6           0        3.421495    4.205884    1.296964
     20          6           0        2.844828    2.186449    3.127589
     21          1           0        2.024889    1.103482    1.459822
     22          6           0        3.750052    4.369266    2.642991
     23          1           0        3.658698    4.994139    0.579209
     24          6           0        3.464487    3.359832    3.562096
     25          1           0        2.611433    1.390806    3.838264
     26          1           0        4.236515    5.289010    2.972763
     27          1           0        3.723105    3.486972    4.614799
     28          9           0        2.609640    0.482814   -3.311888
     29          6           0        6.637082   -0.473334    1.067350
     30          1           0        6.984471   -1.459662    1.399152
     31          1           0        7.373362   -0.054824    0.366052
     32          1           0        6.601000    0.196906    1.939570
     33          6           0        2.888623   -4.118444    0.351511
     34          6           0        1.805838   -3.147282   -1.603440
     35          6           0        1.644218   -4.981743    0.517101
     36          1           0        3.278721   -3.867087    1.346792
     37          1           0        3.666010   -4.682277   -0.200748
     38          6           0        0.617868   -4.053966   -1.344395
     39          1           0        1.473467   -2.201750   -2.047573
     40          1           0        2.488755   -3.643705   -2.320078
     41          1           0        0.935704   -4.460761    1.188679
     42          1           0        1.915686   -5.945367    0.969034
     43          1           0       -0.121515   -3.527284   -0.713440
     44          1           0        0.142686   -4.327747   -2.296396
     45          7           0        2.526751   -2.900099   -0.351499
     46          8           0        1.029751   -5.249664   -0.718173
     47          1           0        1.298681   -0.603349   -0.631226
     48          6           0       -5.399171    2.940917    0.573899
     49          6           0       -4.635564    1.826602    0.326377
     50          6           0       -3.433077    1.591675    1.053493
     51          6           0       -3.024173    2.554469    2.024727
     52          6           0       -3.843168    3.692997    2.263727
     53          6           0       -5.005655    3.881130    1.559064
     54          1           0       -6.314276    3.107459    0.003629
     55          1           0       -4.945337    1.117953   -0.442187
     56          6           0       -2.611634    0.440993    0.818884
     57          6           0       -1.799029    2.377576    2.721774
     58          1           0       -3.520276    4.416896    3.014438
     59          1           0       -5.625331    4.759383    1.746872
     60          6           0       -0.994778    1.300533    2.455606
     61          6           0       -1.413612    0.340969    1.505163
     62          1           0       -1.497131    3.122836    3.459840
     63          6           0       -3.026839   -0.589366   -0.184185
     64          6           0       -2.285487   -0.826429   -1.328579
     65          6           0       -4.182558   -1.402994    0.054973
     66          6           0       -2.642922   -1.806610   -2.283568
     67          6           0       -4.561976   -2.377461   -0.916582
     68          6           0       -4.955324   -1.293626    1.246914
     69          6           0       -3.774747   -2.553439   -2.086281
     70          6           0       -5.715096   -3.177937   -0.686136
     71          6           0       -6.058693   -2.087476    1.443330
     72          1           0       -4.660080   -0.578260    2.014825
     73          1           0       -4.076669   -3.305119   -2.817737
     74          6           0       -6.450252   -3.034148    0.463765
     75          1           0       -5.996467   -3.914053   -1.441679
     76          1           0       -6.635982   -1.993086    2.364289
     77          1           0       -7.331605   -3.654640    0.633389
     78         16           0       -0.286028   -0.964535    1.114774
     79          8           0       -0.998335   -2.199361    1.132457
     80          8           0        0.885861   -0.848808    1.923398
     81         16           0       -0.767402    0.040497   -1.587744
     82          8           0       -0.985613    1.432646   -1.384826
     83          8           0       -0.174158   -0.384044   -2.815606
     84          7           0        0.182698   -0.583783   -0.406471
     85          1           0        5.242832    1.555141   -0.137839
     86          1           0       -2.012835   -1.943571   -3.162122
     87          1           0       -0.040132    1.164565    2.962964
 ---------------------------------------------------------------------
 Rotational constants (GHZ):           0.0758839           0.0509955           0.0397424
 Leave Link  202 at Wed Feb  5 03:49:55 2025, MaxMem=  3758096384 cpu:               0.5 elap:               0.1
 (Enter /ihome/crc/install/gaussian/c01/avx2/tar/g16/l301.exe)
 Standard basis: def2TZVPP (5D, 7F)
 Ernie: Thresh=  0.10000D-02 Tol=  0.10000D-05 Strict=F.
  2141 basis functions,  3317 primitive gaussians,  2442 cartesian basis functions
   194 alpha electrons      194 beta electrons
       nuclear repulsion energy      8326.3949398655 Hartrees.
 IExCor=  402 DFT=T Ex+Corr=B3LYP ExCW=0 ScaHFX=  0.200000
 ScaDFX=  0.800000  0.720000  1.000000  0.810000 ScalE2=  1.000000  1.000000
 IRadAn=      5 IRanWt=     -1 IRanGd=            0 ICorTp=0 IEmpDi=141
 NAtoms=   87 NActive=   87 NUniq=   87 SFac= 1.00D+00 NAtFMM=   60 NAOKFM=T Big=T
 Integral buffers will be    131072 words long.
 Raffenetti 2 integral format.
 Two-electron integral symmetry is turned off.
 R6Disp:  Grimme-D3(BJ) Dispersion energy=       -0.2702031625 Hartrees.
 Nuclear repulsion after empirical dispersion term =     8326.1247367029 Hartrees.
 ------------------------------------------------------------------------------
 Polarizable Continuum Model (PCM)
 =================================
 Model                : PCM.
 Atomic radii         : SMD-Coulomb.
 Polarization charges : Total charges.
 Charge compensation  : None.
 Solution method      : On-the-fly selection.
 Cavity type          : VdW (van der Waals Surface) (Alpha=1.000).
 Cavity algorithm     : GePol (No added spheres)
                        Default sphere list used, NSphG=   87.
                        Lebedev-Laikov grids with approx.  5.0 points / Ang**2.
                        Smoothing algorithm: York/Karplus (Gamma=1.0000).
                        Polarization charges: spherical gaussians, with
                                              point-specific exponents (IZeta= 3).
                        Self-potential: point-specific (ISelfS= 7).
                        Self-field    : sphere-specific E.n sum rule (ISelfD= 2).
 Solvent              : PropylEthanoate, Eps=   5.520500 Eps(inf)=   1.916010
 ------------------------------------------------------------------------------
 GePol: Number of generator spheres                  =      87
 GePol: Total number of spheres                      =      87
 GePol: Number of exposed spheres                    =      87 (100.00%)
 GePol: Number of points                             =    6010
 GePol: Average weight of points                     =       0.11
 GePol: Minimum weight of points                     =   0.28D-11
 GePol: Maximum weight of points                     =    0.21501
 GePol: Number of points with low weight             =     389
 GePol: Fraction of low-weight points (<1% of avg)   =       6.47%
 GePol: Cavity surface area                          =    654.052 Ang**2
 GePol: Cavity volume                                =    760.197 Ang**3
 ------------------------------------------------------------------------------
 Atomic radii for non-electrostatic terms: SMD-CDS.
 ------------------------------------------------------------------------------
 PCM non-electrostatic energy =        -0.0208389203 Hartrees.
 Nuclear repulsion after PCM non-electrostatic terms =     8326.1038977827 Hartrees.
 Leave Link  301 at Wed Feb  5 03:49:55 2025, MaxMem=  3758096384 cpu:               1.4 elap:               0.1
 (Enter /ihome/crc/install/gaussian/c01/avx2/tar/g16/l302.exe)
 NPDir=0 NMtPBC=     1 NCelOv=     1 NCel=       1 NClECP=     1 NCelD=      1
         NCelK=      1 NCelE2=     1 NClLst=     1 CellRange=     0.0.
 One-electron integrals computed using PRISM.
   1 Symmetry operations used in ECPInt.
 ECPInt:  NShTT=  314821 NPrTT=  907825 LenC2=  229674 LenP2D=  440169.
 LDataN:  DoStor=T MaxTD1= 6 Len=  172
 NBasis=  2141 RedAO= T EigKep=  2.43D-06  NBF=  2141
 NBsUse=  2141 1.00D-06 EigRej= -1.00D+00 NBFU=  2141
 Precomputing XC quadrature grid using
 IXCGrd= 4 IRadAn=           5 IRanWt=          -1 IRanGd=           0 AccXCQ= 0.00D+00.
 Generated NRdTot=       0 NPtTot=           0 NUsed=           0 NTot=          32
 NSgBfM=  2265  2242  2259  2265  2265 MxSgAt=    87 MxSgA2=    87.
 Leave Link  302 at Wed Feb  5 03:50:02 2025, MaxMem=  3758096384 cpu:             117.3 elap:               7.4
 (Enter /ihome/crc/install/gaussian/c01/avx2/tar/g16/l303.exe)
 DipDrv:  MaxL=1.
 Leave Link  303 at Wed Feb  5 03:50:03 2025, MaxMem=  3758096384 cpu:               7.4 elap:               0.6
 (Enter /ihome/crc/install/gaussian/c01/avx2/tar/g16/l401.exe)
 ExpMin= 9.52D-02 ExpMax= 6.07D+04 ExpMxC= 2.07D+03 IAcc=3 IRadAn=         5 AccDes= 0.00D+00
 Harris functional with IExCor=  402 and IRadAn=       5 diagonalized for initial guess.
 HarFok:  IExCor=  402 AccDes= 0.00D+00 IRadAn=         5 IDoV= 1 UseB2=F ITyADJ=14
 ICtDFT=  3500011 ScaDFX=  1.000000  1.000000  1.000000  1.000000
 FoFCou: FMM=F IPFlag=           0 FMFlag=      100000 FMFlg1=        2001
         NFxFlg=           0 DoJE=T BraDBF=F KetDBF=T FulRan=T
         wScrn=  0.000000 ICntrl=       500 IOpCl=  0 I1Cent=   200000004 NGrid=           0
         NMat0=    1 NMatS0=      1 NMatT0=    0 NMatD0=    1 NMtDS0=    0 NMtDT0=    0
 Symmetry not used in FoFCou.
 Harris En= -3058.80133174969    
 JPrj=0 DoOrth=F DoCkMO=F.
 Leave Link  401 at Wed Feb  5 03:50:19 2025, MaxMem=  3758096384 cpu:             259.4 elap:              16.3
 (Enter /ihome/crc/install/gaussian/c01/avx2/tar/g16/l502.exe)
 Two-electron integral symmetry not used.
 Closed shell SCF:
 Using DIIS extrapolation, IDIIS=  1040.
 NGot=  3758096384 LenX=  3746113510 LenY=  3740147704
 Requested convergence on RMS density matrix=1.00D-08 within 128 cycles.
 Requested convergence on MAX density matrix=1.00D-06.
 Requested convergence on             energy=1.00D-06.
 No special actions if energy rises.
 Fock matrices will be formed incrementally for  20 cycles.

 Cycle   1  Pass 1  IDiag  1:
 FoFJK:  IHMeth= 1 ICntrl=       0 DoSepK=F KAlg= 0 I1Cent=           0 FoldK=F
 IRaf= 710000000 NMat=       1 IRICut=       1 DoRegI=T DoRafI=F ISym2E= 0 IDoP0=0 IntGTp=1.
 FoFCou: FMM=T IPFlag=           0 FMFlag=      100000 FMFlg1=        2001
         NFxFlg=           0 DoJE=F BraDBF=F KetDBF=F FulRan=T
         wScrn=  0.000000 ICntrl=         0 IOpCl=  0 I1Cent=           0 NGrid=           0
         NMat0=    1 NMatS0=      1 NMatT0=    0 NMatD0=    1 NMtDS0=    0 NMtDT0=    0
 Symmetry not used in FoFCou.
 FMM levels:  10  Number of levels for PrismC:   9
 Inv3:  Mode=1 IEnd=   108360300.
 Iteration    1 A*A^-1 deviation from unit magnitude is 3.33D-15 for   4135.
 Iteration    1 A*A^-1 deviation from orthogonality  is 2.82D-15 for   3907    841.
 Iteration    1 A^-1*A deviation from unit magnitude is 3.44D-15 for    370.
 Iteration    1 A^-1*A deviation from orthogonality  is 7.04D-13 for   5562   5404.
 E= -3057.28428727938    
 DIIS: error= 1.42D-02 at cycle   1 NSaved=   1.
 NSaved= 1 IEnMin= 1 EnMin= -3057.28428727938     IErMin= 1 ErrMin= 1.42D-02
 ErrMax= 1.42D-02  0.00D+00 EMaxC= 1.00D-01 BMatC= 1.81D+00 BMatP= 1.81D+00
 IDIUse=3 WtCom= 8.58D-01 WtEn= 1.42D-01
 Coeff-Com:  0.100D+01
 Coeff-En:   0.100D+01
 Coeff:      0.100D+01
 Gap=     0.151 Goal=   None    Shift=    0.000
 GapD=    0.151 DampG=1.000 DampE=0.500 DampFc=0.5000 IDamp=-1.
 Damping current iteration by 5.00D-01
 RMSDP=2.62D-03 MaxDP=8.89D-01              OVMax= 2.25D-01

 Cycle   2  Pass 1  IDiag  1:
 RMSU=  1.30D-03    CP:  1.03D+00
 E= -3057.61281978220     Delta-E=       -0.328532502826 Rises=F Damp=T
 DIIS: error= 6.56D-03 at cycle   2 NSaved=   2.
 NSaved= 2 IEnMin= 2 EnMin= -3057.61281978220     IErMin= 2 ErrMin= 6.56D-03
 ErrMax= 6.56D-03  0.00D+00 EMaxC= 1.00D-01 BMatC= 3.35D-01 BMatP= 1.81D+00
 IDIUse=3 WtCom= 9.34D-01 WtEn= 6.56D-02
 Coeff-Com:  0.225D+00 0.775D+00
 Coeff-En:   0.375D+00 0.625D+00
 Coeff:      0.235D+00 0.765D+00
 Gap=     0.212 Goal=   None    Shift=    0.000
 RMSDP=1.02D-03 MaxDP=3.47D-01 DE=-3.29D-01 OVMax= 2.20D-01

 Cycle   3  Pass 1  IDiag  1:
 RMSU=  7.61D-04    CP:  9.93D-01  4.91D-01
 E= -3058.43921370371     Delta-E=       -0.826393921510 Rises=F Damp=F
 DIIS: error= 6.31D-03 at cycle   3 NSaved=   3.
 NSaved= 3 IEnMin= 3 EnMin= -3058.43921370371     IErMin= 3 ErrMin= 6.31D-03
 ErrMax= 6.31D-03  0.00D+00 EMaxC= 1.00D-01 BMatC= 3.36D-01 BMatP= 3.35D-01
 IDIUse=3 WtCom= 9.37D-01 WtEn= 6.31D-02
 Coeff-Com:  0.423D-01 0.495D+00 0.462D+00
 Coeff-En:   0.000D+00 0.000D+00 0.100D+01
 Coeff:      0.396D-01 0.464D+00 0.496D+00
 Gap=     0.172 Goal=   None    Shift=    0.000
 RMSDP=6.20D-04 MaxDP=1.04D-01 DE=-8.26D-01 OVMax= 1.14D-01

 Cycle   4  Pass 1  IDiag  1:
 RMSU=  3.76D-04    CP:  9.95D-01  5.71D-01  3.67D-01
 E= -3058.70444314236     Delta-E=       -0.265229438646 Rises=F Damp=F
 DIIS: error= 2.22D-03 at cycle   4 NSaved=   4.
 NSaved= 4 IEnMin= 4 EnMin= -3058.70444314236     IErMin= 4 ErrMin= 2.22D-03
 ErrMax= 2.22D-03  0.00D+00 EMaxC= 1.00D-01 BMatC= 3.61D-02 BMatP= 3.35D-01
 IDIUse=3 WtCom= 9.78D-01 WtEn= 2.22D-02
 Coeff-Com: -0.777D-02 0.146D+00 0.283D+00 0.579D+00
 Coeff-En:   0.000D+00 0.000D+00 0.969D-01 0.903D+00
 Coeff:     -0.759D-02 0.143D+00 0.279D+00 0.586D+00
 Gap=     0.139 Goal=   None    Shift=    0.000
 RMSDP=1.78D-04 MaxDP=4.19D-02 DE=-2.65D-01 OVMax= 4.63D-02

 Cycle   5  Pass 1  IDiag  1:
 RMSU=  1.03D-04    CP:  9.95D-01  5.47D-01  5.07D-01  7.51D-01
 E= -3058.73408595491     Delta-E=       -0.029642812551 Rises=F Damp=F
 DIIS: error= 6.30D-04 at cycle   5 NSaved=   5.
 NSaved= 5 IEnMin= 5 EnMin= -3058.73408595491     IErMin= 5 ErrMin= 6.30D-04
 ErrMax= 6.30D-04  0.00D+00 EMaxC= 1.00D-01 BMatC= 3.31D-03 BMatP= 3.61D-02
 IDIUse=3 WtCom= 9.94D-01 WtEn= 6.30D-03
 Coeff-Com: -0.943D-02 0.312D-01 0.983D-01 0.316D+00 0.564D+00
 Coeff-En:   0.000D+00 0.000D+00 0.000D+00 0.417D-01 0.958D+00
 Coeff:     -0.937D-02 0.310D-01 0.977D-01 0.314D+00 0.566D+00
 Gap=     0.137 Goal=   None    Shift=    0.000
 RMSDP=5.16D-05 MaxDP=1.37D-02 DE=-2.96D-02 OVMax= 2.01D-02

 Cycle   6  Pass 1  IDiag  1:
 RMSU=  3.36D-05    CP:  9.95D-01  5.57D-01  5.02D-01  7.78D-01  6.54D-01
 E= -3058.73684345054     Delta-E=       -0.002757495633 Rises=F Damp=F
 DIIS: error= 3.31D-04 at cycle   6 NSaved=   6.
 NSaved= 6 IEnMin= 6 EnMin= -3058.73684345054     IErMin= 6 ErrMin= 3.31D-04
 ErrMax= 3.31D-04  0.00D+00 EMaxC= 1.00D-01 BMatC= 4.66D-04 BMatP= 3.31D-03
 IDIUse=3 WtCom= 9.97D-01 WtEn= 3.31D-03
 Coeff-Com: -0.457D-02 0.562D-02 0.311D-01 0.128D+00 0.337D+00 0.503D+00
 Coeff-En:   0.000D+00 0.000D+00 0.000D+00 0.000D+00 0.103D+00 0.897D+00
 Coeff:     -0.455D-02 0.560D-02 0.310D-01 0.128D+00 0.336D+00 0.504D+00
 Gap=     0.138 Goal=   None    Shift=    0.000
 RMSDP=2.23D-05 MaxDP=5.57D-03 DE=-2.76D-03 OVMax= 9.05D-03

 Cycle   7  Pass 1  IDiag  1:
 RMSU=  1.67D-05    CP:  9.95D-01  5.58D-01  5.07D-01  7.67D-01  7.56D-01
                    CP:  7.37D-01
 E= -3058.73723424322     Delta-E=       -0.000390792680 Rises=F Damp=F
 DIIS: error= 1.63D-04 at cycle   7 NSaved=   7.
 NSaved= 7 IEnMin= 7 EnMin= -3058.73723424322     IErMin= 7 ErrMin= 1.63D-04
 ErrMax= 1.63D-04  0.00D+00 EMaxC= 1.00D-01 BMatC= 7.98D-05 BMatP= 4.66D-04
 IDIUse=3 WtCom= 9.98D-01 WtEn= 1.63D-03
 Coeff-Com: -0.170D-02 0.597D-04 0.778D-02 0.427D-01 0.151D+00 0.339D+00
 Coeff-Com:  0.461D+00
 Coeff-En:   0.000D+00 0.000D+00 0.000D+00 0.000D+00 0.000D+00 0.148D+00
 Coeff-En:   0.852D+00
 Coeff:     -0.170D-02 0.596D-04 0.776D-02 0.426D-01 0.151D+00 0.339D+00
 Coeff:      0.462D+00
 Gap=     0.138 Goal=   None    Shift=    0.000
 RMSDP=9.18D-06 MaxDP=2.57D-03 DE=-3.91D-04 OVMax= 2.83D-03

 Cycle   8  Pass 1  IDiag  1:
 RMSU=  5.26D-06    CP:  9.95D-01  5.58D-01  5.05D-01  7.73D-01  7.34D-01
                    CP:  7.49D-01  6.01D-01
 E= -3058.73731165176     Delta-E=       -0.000077408533 Rises=F Damp=F
 DIIS: error= 2.93D-05 at cycle   8 NSaved=   8.
 NSaved= 8 IEnMin= 8 EnMin= -3058.73731165176     IErMin= 8 ErrMin= 2.93D-05
 ErrMax= 2.93D-05  0.00D+00 EMaxC= 1.00D-01 BMatC= 3.41D-06 BMatP= 7.98D-05
 IDIUse=1 WtCom= 1.00D+00 WtEn= 0.00D+00
 Coeff-Com: -0.324D-03-0.602D-03 0.435D-03 0.773D-02 0.418D-01 0.121D+00
 Coeff-Com:  0.230D+00 0.601D+00
 Coeff:     -0.324D-03-0.602D-03 0.435D-03 0.773D-02 0.418D-01 0.121D+00
 Coeff:      0.230D+00 0.601D+00
 Gap=     0.138 Goal=   None    Shift=    0.000
 RMSDP=2.16D-06 MaxDP=5.26D-04 DE=-7.74D-05 OVMax= 4.23D-04

 Cycle   9  Pass 1  IDiag  1:
 RMSU=  1.35D-06    CP:  9.95D-01  5.58D-01  5.05D-01  7.73D-01  7.36D-01
                    CP:  7.52D-01  6.28D-01  7.37D-01
 E= -3058.73731445449     Delta-E=       -0.000002802737 Rises=F Damp=F
 DIIS: error= 8.90D-06 at cycle   9 NSaved=   9.
 NSaved= 9 IEnMin= 9 EnMin= -3058.73731445449     IErMin= 9 ErrMin= 8.90D-06
 ErrMax= 8.90D-06  0.00D+00 EMaxC= 1.00D-01 BMatC= 5.00D-07 BMatP= 3.41D-06
 IDIUse=1 WtCom= 1.00D+00 WtEn= 0.00D+00
 Coeff-Com: -0.122D-04-0.288D-03-0.500D-03-0.911D-04 0.799D-02 0.319D-01
 Coeff-Com:  0.750D-01 0.327D+00 0.559D+00
 Coeff:     -0.122D-04-0.288D-03-0.500D-03-0.911D-04 0.799D-02 0.319D-01
 Coeff:      0.750D-01 0.327D+00 0.559D+00
 Gap=     0.138 Goal=   None    Shift=    0.000
 RMSDP=6.01D-07 MaxDP=1.51D-04 DE=-2.80D-06 OVMax= 1.33D-04

 Cycle  10  Pass 1  IDiag  1:
 RMSU=  3.47D-07    CP:  9.95D-01  5.58D-01  5.05D-01  7.73D-01  7.37D-01
                    CP:  7.58D-01  6.27D-01  7.94D-01  8.10D-01
 E= -3058.73731490218     Delta-E=       -0.000000447690 Rises=F Damp=F
 DIIS: error= 2.80D-06 at cycle  10 NSaved=  10.
 NSaved=10 IEnMin=10 EnMin= -3058.73731490218     IErMin=10 ErrMin= 2.80D-06
 ErrMax= 2.80D-06  0.00D+00 EMaxC= 1.00D-01 BMatC= 4.53D-08 BMatP= 5.00D-07
 IDIUse=1 WtCom= 1.00D+00 WtEn= 0.00D+00
 Coeff-Com:  0.137D-04-0.990D-04-0.318D-03-0.704D-03 0.111D-02 0.811D-02
 Coeff-Com:  0.221D-01 0.128D+00 0.303D+00 0.539D+00
 Coeff:      0.137D-04-0.990D-04-0.318D-03-0.704D-03 0.111D-02 0.811D-02
 Coeff:      0.221D-01 0.128D+00 0.303D+00 0.539D+00
 Gap=     0.138 Goal=   None    Shift=    0.000
 RMSDP=2.06D-07 MaxDP=3.97D-05 DE=-4.48D-07 OVMax= 4.77D-05

 Cycle  11  Pass 1  IDiag  1:
 RMSU=  1.45D-07    CP:  9.95D-01  5.58D-01  5.05D-01  7.73D-01  7.37D-01
                    CP:  7.57D-01  6.31D-01  8.07D-01  8.21D-01  8.14D-01
 E= -3058.73731494169     Delta-E=       -0.000000039512 Rises=F Damp=F
 DIIS: error= 1.11D-06 at cycle  11 NSaved=  11.
 NSaved=11 IEnMin=11 EnMin= -3058.73731494169     IErMin=11 ErrMin= 1.11D-06
 ErrMax= 1.11D-06  0.00D+00 EMaxC= 1.00D-01 BMatC= 5.90D-09 BMatP= 4.53D-08
 IDIUse=1 WtCom= 1.00D+00 WtEn= 0.00D+00
 Coeff-Com:  0.668D-05-0.124D-04-0.115D-03-0.384D-03-0.511D-03 0.775D-04
 Coeff-Com:  0.133D-02 0.242D-01 0.883D-01 0.303D+00 0.584D+00
 Coeff:      0.668D-05-0.124D-04-0.115D-03-0.384D-03-0.511D-03 0.775D-04
 Coeff:      0.133D-02 0.242D-01 0.883D-01 0.303D+00 0.584D+00
 Gap=     0.138 Goal=   None    Shift=    0.000
 RMSDP=7.22D-08 MaxDP=1.50D-05 DE=-3.95D-08 OVMax= 1.71D-05

 Cycle  12  Pass 1  IDiag  1:
 RMSU=  4.58D-08    CP:  9.95D-01  5.58D-01  5.05D-01  7.73D-01  7.37D-01
                    CP:  7.58D-01  6.31D-01  8.06D-01  8.31D-01  8.53D-01
                    CP:  6.83D-01
 E= -3058.73731494695     Delta-E=       -0.000000005261 Rises=F Damp=F
 DIIS: error= 4.66D-07 at cycle  12 NSaved=  12.
 NSaved=12 IEnMin=12 EnMin= -3058.73731494695     IErMin=12 ErrMin= 4.66D-07
 ErrMax= 4.66D-07  0.00D+00 EMaxC= 1.00D-01 BMatC= 7.00D-10 BMatP= 5.90D-09
 IDIUse=1 WtCom= 1.00D+00 WtEn= 0.00D+00
 Coeff-Com:  0.196D-05 0.462D-05-0.371D-04-0.155D-03-0.442D-03-0.778D-03
 Coeff-Com: -0.166D-02 0.746D-03 0.171D-01 0.109D+00 0.322D+00 0.554D+00
 Coeff:      0.196D-05 0.462D-05-0.371D-04-0.155D-03-0.442D-03-0.778D-03
 Coeff:     -0.166D-02 0.746D-03 0.171D-01 0.109D+00 0.322D+00 0.554D+00
 Gap=     0.138 Goal=   None    Shift=    0.000
 RMSDP=2.49D-08 MaxDP=4.50D-06 DE=-5.26D-09 OVMax= 7.47D-06

 Cycle  13  Pass 1  IDiag  1:
 RMSU=  1.64D-08    CP:  9.95D-01  5.58D-01  5.05D-01  7.73D-01  7.37D-01
                    CP:  7.58D-01  6.31D-01  8.06D-01  8.39D-01  8.60D-01
                    CP:  7.32D-01  8.47D-01
 E= -3058.73731494762     Delta-E=       -0.000000000668 Rises=F Damp=F
 DIIS: error= 1.03D-07 at cycle  13 NSaved=  13.
 NSaved=13 IEnMin=13 EnMin= -3058.73731494762     IErMin=13 ErrMin= 1.03D-07
 ErrMax= 1.03D-07  0.00D+00 EMaxC= 1.00D-01 BMatC= 1.13D-10 BMatP= 7.00D-10
 IDIUse=1 WtCom= 1.00D+00 WtEn= 0.00D+00
 Coeff-Com: -0.328D-06 0.515D-05-0.243D-05-0.250D-04-0.184D-03-0.485D-03
 Coeff-Com: -0.137D-02-0.395D-02-0.592D-02 0.119D-01 0.972D-01 0.329D+00
 Coeff-Com:  0.574D+00
 Coeff:     -0.328D-06 0.515D-05-0.243D-05-0.250D-04-0.184D-03-0.485D-03
 Coeff:     -0.137D-02-0.395D-02-0.592D-02 0.119D-01 0.972D-01 0.329D+00
 Coeff:      0.574D+00
 Gap=     0.138 Goal=   None    Shift=    0.000
 RMSDP=1.15D-08 MaxDP=2.46D-06 DE=-6.68D-10 OVMax= 2.77D-06

 Cycle  14  Pass 1  IDiag  1:
 RMSU=  7.15D-09    CP:  9.95D-01  5.58D-01  5.05D-01  7.73D-01  7.37D-01
                    CP:  7.58D-01  6.31D-01  8.07D-01  8.37D-01  8.69D-01
                    CP:  7.49D-01  8.80D-01  8.15D-01
 E= -3058.73731494768     Delta-E=       -0.000000000060 Rises=F Damp=F
 DIIS: error= 3.29D-08 at cycle  14 NSaved=  14.
 NSaved=14 IEnMin=14 EnMin= -3058.73731494768     IErMin=14 ErrMin= 3.29D-08
 ErrMax= 3.29D-08  0.00D+00 EMaxC= 1.00D-01 BMatC= 1.13D-11 BMatP= 1.13D-10
 IDIUse=1 WtCom= 1.00D+00 WtEn= 0.00D+00
 Coeff-Com: -0.384D-06 0.215D-05 0.286D-05 0.459D-05-0.472D-04-0.151D-03
 Coeff-Com: -0.532D-03-0.205D-02-0.505D-02-0.637D-02 0.158D-01 0.110D+00
 Coeff-Com:  0.309D+00 0.579D+00
 Coeff:     -0.384D-06 0.215D-05 0.286D-05 0.459D-05-0.472D-04-0.151D-03
 Coeff:     -0.532D-03-0.205D-02-0.505D-02-0.637D-02 0.158D-01 0.110D+00
 Coeff:      0.309D+00 0.579D+00
 Gap=     0.138 Goal=   None    Shift=    0.000
 RMSDP=3.91D-09 MaxDP=5.48D-07 DE=-6.00D-11 OVMax= 1.09D-06

 Error on total polarization charges =  0.07111
 SCF Done:  E(RB3LYP) =  -3058.73731495     A.U. after   14 cycles
            NFock= 14  Conv=0.39D-08     -V/T= 2.0043
 KE= 3.045571789917D+03 PE=-2.381914020532D+04 EE= 9.388727202671D+03
 SMD-CDS (non-electrostatic) energy       (kcal/mol) =     -13.08
 (included in total energy above)
 Leave Link  502 at Wed Feb  5 04:53:21 2025, MaxMem=  3758096384 cpu:           60354.7 elap:            3782.1
 (Enter /ihome/crc/install/gaussian/c01/avx2/tar/g16/l601.exe)
 Copying SCF densities to generalized density rwf, IOpCl= 0 IROHF=0.

 **********************************************************************

            Population analysis using the SCF Density.

 **********************************************************************

 Alpha  occ. eigenvalues --  -89.05674 -89.05431 -24.69241 -19.12433 -19.12228
 Alpha  occ. eigenvalues --  -19.11959 -19.11917 -19.11652 -14.33575 -14.33464
 Alpha  occ. eigenvalues --  -14.32294 -10.25893 -10.25260 -10.22791 -10.21565
 Alpha  occ. eigenvalues --  -10.21501 -10.21177 -10.21172 -10.21052 -10.20581
 Alpha  occ. eigenvalues --  -10.20268 -10.20065 -10.20019 -10.19927 -10.19784
 Alpha  occ. eigenvalues --  -10.19727 -10.19602 -10.19495 -10.19310 -10.19140
 Alpha  occ. eigenvalues --  -10.19036 -10.18801 -10.18715 -10.18679 -10.18352
 Alpha  occ. eigenvalues --  -10.18321 -10.18303 -10.18274 -10.18269 -10.18239
 Alpha  occ. eigenvalues --  -10.18216 -10.18188 -10.18091 -10.17732 -10.17688
 Alpha  occ. eigenvalues --  -10.17587 -10.17537 -10.17486 -10.17431 -10.17391
 Alpha  occ. eigenvalues --  -10.17265 -10.17136 -10.16917  -8.10304  -8.10078
 Alpha  occ. eigenvalues --   -6.06675  -6.06502  -6.06461  -6.06453  -6.06270
 Alpha  occ. eigenvalues --   -6.06231  -1.23268  -1.13934  -1.12551  -1.04258
 Alpha  occ. eigenvalues --   -1.01935  -1.01685  -0.98705  -0.92897  -0.92306
 Alpha  occ. eigenvalues --   -0.90027  -0.88384  -0.87497  -0.85091  -0.84525
 Alpha  occ. eigenvalues --   -0.83692  -0.82352  -0.80740  -0.79394  -0.77703
 Alpha  occ. eigenvalues --   -0.77619  -0.77275  -0.76490  -0.76161  -0.74587
 Alpha  occ. eigenvalues --   -0.74302  -0.74207  -0.72959  -0.72532  -0.71305
 Alpha  occ. eigenvalues --   -0.69621  -0.69130  -0.67615  -0.66324  -0.64528
 Alpha  occ. eigenvalues --   -0.64089  -0.63550  -0.62791  -0.62221  -0.61865
 Alpha  occ. eigenvalues --   -0.61797  -0.60260  -0.59540  -0.59189  -0.58475
 Alpha  occ. eigenvalues --   -0.58209  -0.56448  -0.55723  -0.54597  -0.53899
 Alpha  occ. eigenvalues --   -0.53462  -0.52642  -0.52135  -0.51595  -0.51316
 Alpha  occ. eigenvalues --   -0.51044  -0.50584  -0.50149  -0.49897  -0.49582
 Alpha  occ. eigenvalues --   -0.49027  -0.48415  -0.47646  -0.47367  -0.46992
 Alpha  occ. eigenvalues --   -0.46795  -0.46681  -0.46321  -0.45980  -0.45702
 Alpha  occ. eigenvalues --   -0.45534  -0.45363  -0.45065  -0.44788  -0.44537
 Alpha  occ. eigenvalues --   -0.44058  -0.43811  -0.43749  -0.43272  -0.42922
 Alpha  occ. eigenvalues --   -0.42574  -0.42345  -0.42300  -0.42193  -0.41787
 Alpha  occ. eigenvalues --   -0.40910  -0.40890  -0.40456  -0.40179  -0.39844
 Alpha  occ. eigenvalues --   -0.39738  -0.39339  -0.38700  -0.38540  -0.38268
 Alpha  occ. eigenvalues --   -0.37670  -0.37524  -0.37323  -0.37223  -0.36407
 Alpha  occ. eigenvalues --   -0.36202  -0.36089  -0.35901  -0.35728  -0.35315
 Alpha  occ. eigenvalues --   -0.35147  -0.34866  -0.34838  -0.34630  -0.34057
 Alpha  occ. eigenvalues --   -0.34004  -0.33779  -0.33583  -0.32590  -0.32413
 Alpha  occ. eigenvalues --   -0.31989  -0.31666  -0.30855  -0.30060  -0.29593
 Alpha  occ. eigenvalues --   -0.29442  -0.28492  -0.28420  -0.28022  -0.27564
 Alpha  occ. eigenvalues --   -0.26365  -0.26056  -0.25906  -0.25575  -0.24892
 Alpha  occ. eigenvalues --   -0.23507  -0.23368  -0.22986  -0.21106
 Alpha virt. eigenvalues --   -0.07327  -0.06064  -0.04966  -0.04150  -0.03304
 Alpha virt. eigenvalues --   -0.02904  -0.02362  -0.01233  -0.00073   0.00263
 Alpha virt. eigenvalues --    0.00851   0.01199   0.03965   0.04721   0.05077
 Alpha virt. eigenvalues --    0.05336   0.05572   0.05851   0.05880   0.06246
 Alpha virt. eigenvalues --    0.06338   0.06421   0.06734   0.06968   0.07286
 Alpha virt. eigenvalues --    0.07449   0.07712   0.08021   0.08294   0.08472
 Alpha virt. eigenvalues --    0.09091   0.09230   0.09519   0.09648   0.09821
 Alpha virt. eigenvalues --    0.10106   0.10198   0.10493   0.10636   0.10904
 Alpha virt. eigenvalues --    0.11356   0.11482   0.11698   0.11808   0.12135
 Alpha virt. eigenvalues --    0.12405   0.12604   0.12685   0.12888   0.13012
 Alpha virt. eigenvalues --    0.13435   0.13533   0.13853   0.13982   0.14120
 Alpha virt. eigenvalues --    0.14483   0.14677   0.15022   0.15205   0.15435
 Alpha virt. eigenvalues --    0.15711   0.15981   0.16107   0.16158   0.16669
 Alpha virt. eigenvalues --    0.16791   0.17110   0.17267   0.17592   0.17711
 Alpha virt. eigenvalues --    0.18470   0.18663   0.18797   0.19048   0.19253
 Alpha virt. eigenvalues --    0.19291   0.19603   0.19724   0.20006   0.20294
 Alpha virt. eigenvalues --    0.20447   0.20578   0.20857   0.21258   0.21325
 Alpha virt. eigenvalues --    0.21483   0.21718   0.21897   0.22209   0.22294
 Alpha virt. eigenvalues --    0.22542   0.22837   0.22906   0.23118   0.23419
 Alpha virt. eigenvalues --    0.23544   0.23682   0.24023   0.24201   0.24216
 Alpha virt. eigenvalues --    0.24340   0.24556   0.24927   0.25211   0.25255
 Alpha virt. eigenvalues --    0.25681   0.25797   0.26495   0.26620   0.26776
 Alpha virt. eigenvalues --    0.26953   0.27001   0.27119   0.27509   0.27755
 Alpha virt. eigenvalues --    0.27844   0.28020   0.28354   0.28515   0.28719
 Alpha virt. eigenvalues --    0.28782   0.29115   0.29252   0.29420   0.29776
 Alpha virt. eigenvalues --    0.30017   0.30103   0.30463   0.30530   0.30718
 Alpha virt. eigenvalues --    0.30951   0.31240   0.31392   0.31494   0.31710
 Alpha virt. eigenvalues --    0.31968   0.32111   0.32410   0.32527   0.32826
 Alpha virt. eigenvalues --    0.33255   0.33309   0.33519   0.33697   0.34006
 Alpha virt. eigenvalues --    0.34280   0.34535   0.34719   0.34798   0.35048
 Alpha virt. eigenvalues --    0.35130   0.35348   0.35574   0.35761   0.35803
 Alpha virt. eigenvalues --    0.35970   0.36234   0.36385   0.36588   0.36636
 Alpha virt. eigenvalues --    0.37157   0.37234   0.37487   0.37674   0.37870
 Alpha virt. eigenvalues --    0.38079   0.38292   0.38433   0.38645   0.38856
 Alpha virt. eigenvalues --    0.39101   0.39126   0.39227   0.39477   0.39698
 Alpha virt. eigenvalues --    0.39844   0.39926   0.40116   0.40374   0.40640
 Alpha virt. eigenvalues --    0.40738   0.41042   0.41146   0.41392   0.41484
 Alpha virt. eigenvalues --    0.41675   0.41776   0.42175   0.42332   0.42475
 Alpha virt. eigenvalues --    0.42677   0.42844   0.42949   0.43047   0.43210
 Alpha virt. eigenvalues --    0.43345   0.43457   0.43721   0.43829   0.43998
 Alpha virt. eigenvalues --    0.44278   0.44541   0.44606   0.44966   0.45167
 Alpha virt. eigenvalues --    0.45471   0.45577   0.45770   0.46001   0.46237
 Alpha virt. eigenvalues --    0.46462   0.46513   0.46600   0.46781   0.46991
 Alpha virt. eigenvalues --    0.47291   0.47468   0.47775   0.47892   0.48161
 Alpha virt. eigenvalues --    0.48325   0.48402   0.48769   0.49010   0.49189
 Alpha virt. eigenvalues --    0.49374   0.49539   0.49609   0.49795   0.49992
 Alpha virt. eigenvalues --    0.50197   0.50306   0.50629   0.50773   0.51023
 Alpha virt. eigenvalues --    0.51226   0.51491   0.51752   0.51876   0.52188
 Alpha virt. eigenvalues --    0.52339   0.52837   0.53097   0.53385   0.53639
 Alpha virt. eigenvalues --    0.53720   0.54051   0.54461   0.54656   0.54835
 Alpha virt. eigenvalues --    0.54922   0.55328   0.55401   0.55891   0.56121
 Alpha virt. eigenvalues --    0.56453   0.56708   0.56948   0.57267   0.57508
 Alpha virt. eigenvalues --    0.57732   0.58311   0.58414   0.58625   0.58944
 Alpha virt. eigenvalues --    0.59234   0.59388   0.59575   0.59865   0.60189
 Alpha virt. eigenvalues --    0.60806   0.61054   0.61142   0.61638   0.61877
 Alpha virt. eigenvalues --    0.62154   0.62349   0.63016   0.63110   0.63410
 Alpha virt. eigenvalues --    0.63560   0.63677   0.64105   0.64175   0.64455
 Alpha virt. eigenvalues --    0.64799   0.64897   0.65047   0.65414   0.65449
 Alpha virt. eigenvalues --    0.65612   0.65914   0.66081   0.66395   0.66653
 Alpha virt. eigenvalues --    0.67226   0.67330   0.67610   0.67752   0.68055
 Alpha virt. eigenvalues --    0.68319   0.68348   0.68670   0.68916   0.69145
 Alpha virt. eigenvalues --    0.69268   0.69473   0.69676   0.69806   0.70020
 Alpha virt. eigenvalues --    0.70219   0.70402   0.70711   0.70783   0.70883
 Alpha virt. eigenvalues --    0.71050   0.71360   0.71562   0.71823   0.72346
 Alpha virt. eigenvalues --    0.72408   0.72702   0.72736   0.73003   0.73252
 Alpha virt. eigenvalues --    0.73557   0.73885   0.74138   0.74373   0.74448
 Alpha virt. eigenvalues --    0.74795   0.75278   0.75645   0.75654   0.75921
 Alpha virt. eigenvalues --    0.76219   0.76367   0.76695   0.76924   0.76967
 Alpha virt. eigenvalues --    0.77430   0.77806   0.77958   0.78096   0.78557
 Alpha virt. eigenvalues --    0.78728   0.79072   0.79156   0.79508   0.79892
 Alpha virt. eigenvalues --    0.80049   0.80573   0.80768   0.81003   0.81324
 Alpha virt. eigenvalues --    0.81423   0.81827   0.81974   0.82097   0.82515
 Alpha virt. eigenvalues --    0.82654   0.82950   0.83271   0.83351   0.83737
 Alpha virt. eigenvalues --    0.83912   0.84056   0.84381   0.84613   0.84710
 Alpha virt. eigenvalues --    0.84873   0.85197   0.85479   0.85748   0.86117
 Alpha virt. eigenvalues --    0.86366   0.86544   0.86688   0.86992   0.87123
 Alpha virt. eigenvalues --    0.87666   0.87748   0.87986   0.88322   0.88794
 Alpha virt. eigenvalues --    0.88997   0.89322   0.89424   0.89536   0.89825
 Alpha virt. eigenvalues --    0.90389   0.90410   0.90919   0.91017   0.91448
 Alpha virt. eigenvalues --    0.91499   0.91831   0.91944   0.92264   0.92618
 Alpha virt. eigenvalues --    0.92925   0.93160   0.93481   0.93587   0.94057
 Alpha virt. eigenvalues --    0.94432   0.94594   0.94952   0.95141   0.95583
 Alpha virt. eigenvalues --    0.95666   0.95834   0.96338   0.96438   0.96706
 Alpha virt. eigenvalues --    0.97074   0.97400   0.97642   0.98038   0.98125
 Alpha virt. eigenvalues --    0.98425   0.98538   0.98762   0.98970   0.99346
 Alpha virt. eigenvalues --    0.99512   0.99889   1.00362   1.00500   1.00798
 Alpha virt. eigenvalues --    1.01166   1.01239   1.01462   1.01887   1.02310
 Alpha virt. eigenvalues --    1.02633   1.02687   1.03269   1.03513   1.03553
 Alpha virt. eigenvalues --    1.03730   1.03910   1.04125   1.04507   1.04857
 Alpha virt. eigenvalues --    1.05254   1.05637   1.05769   1.05827   1.06429
 Alpha virt. eigenvalues --    1.06683   1.06843   1.06932   1.07227   1.07523
 Alpha virt. eigenvalues --    1.08168   1.08529   1.08786   1.08934   1.08984
 Alpha virt. eigenvalues --    1.09287   1.09460   1.10022   1.10375   1.10574
 Alpha virt. eigenvalues --    1.10773   1.11199   1.11295   1.11433   1.11901
 Alpha virt. eigenvalues --    1.12099   1.12116   1.12283   1.12601   1.12795
 Alpha virt. eigenvalues --    1.13529   1.13733   1.13790   1.14088   1.14340
 Alpha virt. eigenvalues --    1.14865   1.15015   1.15121   1.15514   1.15977
 Alpha virt. eigenvalues --    1.16201   1.16375   1.16581   1.16655   1.16786
 Alpha virt. eigenvalues --    1.17053   1.17517   1.17961   1.18067   1.18152
 Alpha virt. eigenvalues --    1.18441   1.18823   1.19116   1.19402   1.19795
 Alpha virt. eigenvalues --    1.20216   1.20458   1.20670   1.21049   1.21135
 Alpha virt. eigenvalues --    1.21313   1.21420   1.21815   1.22018   1.22371
 Alpha virt. eigenvalues --    1.22508   1.22672   1.22996   1.23418   1.23554
 Alpha virt. eigenvalues --    1.24081   1.24417   1.24733   1.25080   1.25223
 Alpha virt. eigenvalues --    1.25423   1.25594   1.25906   1.26007   1.26454
 Alpha virt. eigenvalues --    1.26834   1.26996   1.27292   1.27406   1.27659
 Alpha virt. eigenvalues --    1.28039   1.28178   1.28713   1.28775   1.29086
 Alpha virt. eigenvalues --    1.29301   1.29582   1.29772   1.29941   1.30479
 Alpha virt. eigenvalues --    1.30616   1.30722   1.31046   1.31127   1.31546
 Alpha virt. eigenvalues --    1.31622   1.31699   1.32043   1.32153   1.32447
 Alpha virt. eigenvalues --    1.32605   1.33044   1.33368   1.33521   1.33732
 Alpha virt. eigenvalues --    1.33900   1.34160   1.34262   1.34690   1.34959
 Alpha virt. eigenvalues --    1.35251   1.35323   1.35597   1.36085   1.36509
 Alpha virt. eigenvalues --    1.36860   1.37066   1.37257   1.37427   1.37587
 Alpha virt. eigenvalues --    1.37972   1.38279   1.38402   1.38684   1.39218
 Alpha virt. eigenvalues --    1.39351   1.39669   1.40097   1.40182   1.40609
 Alpha virt. eigenvalues --    1.40772   1.40972   1.41220   1.41452   1.41625
 Alpha virt. eigenvalues --    1.41889   1.42186   1.42479   1.42679   1.43031
 Alpha virt. eigenvalues --    1.43137   1.43459   1.43937   1.44032   1.44357
 Alpha virt. eigenvalues --    1.44477   1.44701   1.45206   1.45447   1.45836
 Alpha virt. eigenvalues --    1.45957   1.46108   1.46586   1.46745   1.46926
 Alpha virt. eigenvalues --    1.47334   1.47461   1.47813   1.47952   1.48169
 Alpha virt. eigenvalues --    1.48296   1.48732   1.49164   1.49332   1.49747
 Alpha virt. eigenvalues --    1.49943   1.50156   1.50626   1.50902   1.51055
 Alpha virt. eigenvalues --    1.51250   1.51606   1.52225   1.52418   1.52458
 Alpha virt. eigenvalues --    1.53149   1.53616   1.53692   1.53841   1.53985
 Alpha virt. eigenvalues --    1.54052   1.54898   1.55199   1.55360   1.55880
 Alpha virt. eigenvalues --    1.56337   1.56462   1.56713   1.56907   1.57015
 Alpha virt. eigenvalues --    1.57712   1.58064   1.58435   1.58710   1.59070
 Alpha virt. eigenvalues --    1.59326   1.59621   1.59897   1.60096   1.60514
 Alpha virt. eigenvalues --    1.60760   1.61207   1.61642   1.61677   1.62033
 Alpha virt. eigenvalues --    1.62375   1.62604   1.63001   1.63228   1.63439
 Alpha virt. eigenvalues --    1.63708   1.64064   1.64220   1.64585   1.64852
 Alpha virt. eigenvalues --    1.65188   1.65445   1.65845   1.66119   1.66361
 Alpha virt. eigenvalues --    1.66471   1.66676   1.66947   1.67380   1.67512
 Alpha virt. eigenvalues --    1.68167   1.68355   1.68810   1.68925   1.69139
 Alpha virt. eigenvalues --    1.69369   1.69501   1.69784   1.70180   1.70612
 Alpha virt. eigenvalues --    1.70973   1.71129   1.71619   1.71988   1.72309
 Alpha virt. eigenvalues --    1.72422   1.72988   1.73214   1.73800   1.74103
 Alpha virt. eigenvalues --    1.74460   1.74848   1.75232   1.75549   1.75724
 Alpha virt. eigenvalues --    1.75985   1.76128   1.76353   1.76858   1.76887
 Alpha virt. eigenvalues --    1.76995   1.77572   1.78222   1.78395   1.78648
 Alpha virt. eigenvalues --    1.79440   1.79877   1.80190   1.80314   1.80640
 Alpha virt. eigenvalues --    1.80941   1.81355   1.81750   1.82360   1.82889
 Alpha virt. eigenvalues --    1.82942   1.83273   1.83879   1.84136   1.84746
 Alpha virt. eigenvalues --    1.84796   1.85389   1.86047   1.86260   1.86656
 Alpha virt. eigenvalues --    1.86885   1.86929   1.88097   1.88288   1.88585
 Alpha virt. eigenvalues --    1.89476   1.90131   1.90454   1.90891   1.91259
 Alpha virt. eigenvalues --    1.91472   1.91862   1.91993   1.92287   1.93165
 Alpha virt. eigenvalues --    1.93548   1.93659   1.94163   1.94527   1.94973
 Alpha virt. eigenvalues --    1.95457   1.96078   1.96442   1.96540   1.97094
 Alpha virt. eigenvalues --    1.97547   1.98076   1.98297   1.98810   1.99046
 Alpha virt. eigenvalues --    1.99455   1.99758   2.00383   2.00744   2.00946
 Alpha virt. eigenvalues --    2.01319   2.02069   2.02337   2.02859   2.03067
 Alpha virt. eigenvalues --    2.03382   2.03783   2.04007   2.04443   2.04647
 Alpha virt. eigenvalues --    2.04951   2.05337   2.05499   2.05754   2.06230
 Alpha virt. eigenvalues --    2.06667   2.06775   2.07111   2.07483   2.07711
 Alpha virt. eigenvalues --    2.08126   2.08473   2.08834   2.09047   2.09252
 Alpha virt. eigenvalues --    2.09676   2.10293   2.10436   2.10760   2.11182
 Alpha virt. eigenvalues --    2.11451   2.11699   2.12441   2.12534   2.12994
 Alpha virt. eigenvalues --    2.13619   2.13865   2.14155   2.14668   2.15042
 Alpha virt. eigenvalues --    2.15145   2.15805   2.16482   2.16706   2.17424
 Alpha virt. eigenvalues --    2.17623   2.18469   2.18516   2.18632   2.19746
 Alpha virt. eigenvalues --    2.20057   2.20923   2.21544   2.22319   2.22685
 Alpha virt. eigenvalues --    2.22841   2.22969   2.23238   2.23979   2.24396
 Alpha virt. eigenvalues --    2.24702   2.25369   2.25945   2.26272   2.26603
 Alpha virt. eigenvalues --    2.26812   2.27361   2.28232   2.28355   2.28540
 Alpha virt. eigenvalues --    2.29207   2.29502   2.30129   2.30703   2.31225
 Alpha virt. eigenvalues --    2.31474   2.31837   2.32021   2.32302   2.32932
 Alpha virt. eigenvalues --    2.32961   2.33118   2.33474   2.34228   2.34445
 Alpha virt. eigenvalues --    2.34649   2.35146   2.35322   2.35982   2.36258
 Alpha virt. eigenvalues --    2.36933   2.37330   2.37615   2.38038   2.38357
 Alpha virt. eigenvalues --    2.39019   2.39274   2.39650   2.40029   2.40522
 Alpha virt. eigenvalues --    2.40819   2.41452   2.41572   2.41921   2.41926
 Alpha virt. eigenvalues --    2.42401   2.42848   2.43098   2.44049   2.44154
 Alpha virt. eigenvalues --    2.44741   2.45227   2.45577   2.45852   2.46647
 Alpha virt. eigenvalues --    2.47670   2.47817   2.48380   2.49270   2.49511
 Alpha virt. eigenvalues --    2.50057   2.50409   2.51352   2.52071   2.52323
 Alpha virt. eigenvalues --    2.52792   2.53024   2.53597   2.53746   2.54382
 Alpha virt. eigenvalues --    2.54555   2.55535   2.56168   2.56632   2.57479
 Alpha virt. eigenvalues --    2.57654   2.58103   2.58535   2.58910   2.59502
 Alpha virt. eigenvalues --    2.60076   2.60601   2.61042   2.61592   2.61981
 Alpha virt. eigenvalues --    2.62414   2.62757   2.63316   2.63558   2.63633
 Alpha virt. eigenvalues --    2.64707   2.64937   2.65485   2.65716   2.65985
 Alpha virt. eigenvalues --    2.66461   2.67137   2.67913   2.68015   2.68484
 Alpha virt. eigenvalues --    2.69075   2.69165   2.69325   2.69571   2.70199
 Alpha virt. eigenvalues --    2.70247   2.70625   2.71110   2.71374   2.71704
 Alpha virt. eigenvalues --    2.71980   2.72240   2.72371   2.72565   2.72818
 Alpha virt. eigenvalues --    2.72926   2.73701   2.73818   2.73980   2.74328
 Alpha virt. eigenvalues --    2.74455   2.75048   2.75190   2.75730   2.75845
 Alpha virt. eigenvalues --    2.75921   2.76169   2.76321   2.76907   2.77845
 Alpha virt. eigenvalues --    2.78145   2.78281   2.78430   2.78588   2.78875
 Alpha virt. eigenvalues --    2.79214   2.79609   2.79811   2.80062   2.80520
 Alpha virt. eigenvalues --    2.80593   2.81185   2.81397   2.81586   2.81752
 Alpha virt. eigenvalues --    2.82168   2.82523   2.82918   2.83367   2.83442
 Alpha virt. eigenvalues --    2.83906   2.84131   2.84339   2.84495   2.84681
 Alpha virt. eigenvalues --    2.85169   2.85751   2.86059   2.86296   2.86531
 Alpha virt. eigenvalues --    2.86796   2.87123   2.87709   2.88189   2.88637
 Alpha virt. eigenvalues --    2.89198   2.89590   2.89663   2.90112   2.90383
 Alpha virt. eigenvalues --    2.90678   2.90759   2.91020   2.91098   2.91489
 Alpha virt. eigenvalues --    2.91704   2.92033   2.92285   2.92693   2.93004
 Alpha virt. eigenvalues --    2.93390   2.93561   2.94022   2.94299   2.94708
 Alpha virt. eigenvalues --    2.95006   2.95084   2.95148   2.95576   2.95780
 Alpha virt. eigenvalues --    2.95883   2.96484   2.96627   2.96810   2.96931
 Alpha virt. eigenvalues --    2.97096   2.97479   2.97790   2.97892   2.98090
 Alpha virt. eigenvalues --    2.98490   2.99280   2.99483   2.99909   3.00033
 Alpha virt. eigenvalues --    3.00367   3.00447   3.00480   3.01083   3.01197
 Alpha virt. eigenvalues --    3.01593   3.01633   3.01816   3.01995   3.02140
 Alpha virt. eigenvalues --    3.02285   3.02765   3.03110   3.03179   3.03462
 Alpha virt. eigenvalues --    3.03581   3.03678   3.03718   3.03942   3.04364
 Alpha virt. eigenvalues --    3.04502   3.04832   3.04971   3.05285   3.05474
 Alpha virt. eigenvalues --    3.05777   3.06008   3.06116   3.06315   3.06635
 Alpha virt. eigenvalues --    3.06714   3.06944   3.07263   3.07349   3.07996
 Alpha virt. eigenvalues --    3.08118   3.08192   3.08457   3.08787   3.09139
 Alpha virt. eigenvalues --    3.09161   3.09275   3.09643   3.09944   3.10335
 Alpha virt. eigenvalues --    3.10469   3.10788   3.10889   3.11209   3.11533
 Alpha virt. eigenvalues --    3.11729   3.12078   3.12179   3.12428   3.12572
 Alpha virt. eigenvalues --    3.12765   3.13057   3.13465   3.13674   3.13986
 Alpha virt. eigenvalues --    3.14180   3.14430   3.14617   3.14639   3.15201
 Alpha virt. eigenvalues --    3.15437   3.15684   3.15881   3.16234   3.16536
 Alpha virt. eigenvalues --    3.16696   3.16955   3.17128   3.17502   3.17788
 Alpha virt. eigenvalues --    3.18055   3.18136   3.18474   3.18794   3.18925
 Alpha virt. eigenvalues --    3.19222   3.19406   3.19501   3.19903   3.20355
 Alpha virt. eigenvalues --    3.20434   3.20579   3.20814   3.20958   3.21198
 Alpha virt. eigenvalues --    3.21323   3.21497   3.21902   3.22223   3.22468
 Alpha virt. eigenvalues --    3.22649   3.22868   3.23194   3.23293   3.23815
 Alpha virt. eigenvalues --    3.23896   3.24338   3.24617   3.24930   3.25128
 Alpha virt. eigenvalues --    3.25169   3.25639   3.26014   3.26094   3.26480
 Alpha virt. eigenvalues --    3.26699   3.26934   3.27242   3.27475   3.27643
 Alpha virt. eigenvalues --    3.28312   3.28445   3.28953   3.29138   3.29437
 Alpha virt. eigenvalues --    3.29750   3.29904   3.30309   3.30691   3.31060
 Alpha virt. eigenvalues --    3.31245   3.31425   3.31829   3.32124   3.32331
 Alpha virt. eigenvalues --    3.32681   3.33078   3.33177   3.33239   3.33575
 Alpha virt. eigenvalues --    3.33694   3.33859   3.34258   3.34724   3.34959
 Alpha virt. eigenvalues --    3.35105   3.35193   3.35362   3.35666   3.35956
 Alpha virt. eigenvalues --    3.36251   3.36677   3.36848   3.37136   3.37365
 Alpha virt. eigenvalues --    3.37568   3.37979   3.38083   3.38347   3.38727
 Alpha virt. eigenvalues --    3.38787   3.38867   3.39284   3.39632   3.39881
 Alpha virt. eigenvalues --    3.40452   3.40610   3.40697   3.41158   3.41306
 Alpha virt. eigenvalues --    3.41437   3.41590   3.41665   3.41963   3.42334
 Alpha virt. eigenvalues --    3.42474   3.42615   3.42802   3.43189   3.43732
 Alpha virt. eigenvalues --    3.44224   3.44460   3.44526   3.44832   3.45267
 Alpha virt. eigenvalues --    3.45471   3.45611   3.46249   3.46337   3.46513
 Alpha virt. eigenvalues --    3.46865   3.47022   3.47406   3.47742   3.47973
 Alpha virt. eigenvalues --    3.48150   3.48489   3.48801   3.49046   3.49187
 Alpha virt. eigenvalues --    3.49592   3.49857   3.49986   3.50378   3.50574
 Alpha virt. eigenvalues --    3.50906   3.51181   3.51404   3.51704   3.52052
 Alpha virt. eigenvalues --    3.52236   3.52310   3.52684   3.52856   3.53123
 Alpha virt. eigenvalues --    3.53318   3.53774   3.53887   3.54073   3.54222
 Alpha virt. eigenvalues --    3.54565   3.54895   3.55104   3.55343   3.55536
 Alpha virt. eigenvalues --    3.56444   3.56458   3.56806   3.57049   3.57247
 Alpha virt. eigenvalues --    3.57502   3.57599   3.57778   3.58228   3.58344
 Alpha virt. eigenvalues --    3.59173   3.59506   3.59832   3.60115   3.60159
 Alpha virt. eigenvalues --    3.60644   3.60959   3.61141   3.61529   3.61999
 Alpha virt. eigenvalues --    3.62132   3.62386   3.62764   3.63106   3.63241
 Alpha virt. eigenvalues --    3.63506   3.63903   3.63971   3.64230   3.65027
 Alpha virt. eigenvalues --    3.65143   3.65281   3.65684   3.66094   3.66409
 Alpha virt. eigenvalues --    3.66491   3.66783   3.67214   3.67563   3.68023
 Alpha virt. eigenvalues --    3.68282   3.68852   3.69212   3.69241   3.70021
 Alpha virt. eigenvalues --    3.70727   3.71132   3.71215   3.71487   3.71806
 Alpha virt. eigenvalues --    3.72265   3.72481   3.72685   3.72913   3.73283
 Alpha virt. eigenvalues --    3.73688   3.73831   3.74148   3.74369   3.74637
 Alpha virt. eigenvalues --    3.74946   3.75104   3.75459   3.75601   3.75945
 Alpha virt. eigenvalues --    3.76273   3.76666   3.76725   3.77041   3.77316
 Alpha virt. eigenvalues --    3.77602   3.77830   3.78072   3.78305   3.78790
 Alpha virt. eigenvalues --    3.78958   3.79387   3.79569   3.79648   3.79886
 Alpha virt. eigenvalues --    3.80016   3.80429   3.80919   3.81144   3.81555
 Alpha virt. eigenvalues --    3.81710   3.82086   3.82415   3.82555   3.83090
 Alpha virt. eigenvalues --    3.83750   3.83995   3.84246   3.84536   3.84780
 Alpha virt. eigenvalues --    3.84844   3.85046   3.85339   3.85649   3.85828
 Alpha virt. eigenvalues --    3.85938   3.86047   3.86898   3.86939   3.87029
 Alpha virt. eigenvalues --    3.87530   3.87822   3.88635   3.88756   3.89278
 Alpha virt. eigenvalues --    3.89633   3.89870   3.90110   3.90420   3.90751
 Alpha virt. eigenvalues --    3.91633   3.91826   3.92056   3.92465   3.92686
 Alpha virt. eigenvalues --    3.93144   3.93513   3.94081   3.94717   3.94922
 Alpha virt. eigenvalues --    3.94973   3.95201   3.95349   3.95944   3.96252
 Alpha virt. eigenvalues --    3.96339   3.96533   3.97332   3.97626   3.97785
 Alpha virt. eigenvalues --    3.98294   3.98966   3.99058   3.99591   3.99978
 Alpha virt. eigenvalues --    4.00372   4.00765   4.00968   4.01199   4.01645
 Alpha virt. eigenvalues --    4.01828   4.02319   4.02821   4.03076   4.03471
 Alpha virt. eigenvalues --    4.03987   4.04126   4.04752   4.04939   4.05244
 Alpha virt. eigenvalues --    4.05675   4.06074   4.06532   4.07070   4.07072
 Alpha virt. eigenvalues --    4.07415   4.07708   4.08090   4.08311   4.08900
 Alpha virt. eigenvalues --    4.09145   4.09220   4.09425   4.09731   4.10030
 Alpha virt. eigenvalues --    4.10078   4.10203   4.10638   4.10904   4.11113
 Alpha virt. eigenvalues --    4.11310   4.12169   4.12227   4.12745   4.13225
 Alpha virt. eigenvalues --    4.13417   4.13594   4.13902   4.14200   4.14316
 Alpha virt. eigenvalues --    4.14517   4.14927   4.15256   4.15563   4.16037
 Alpha virt. eigenvalues --    4.16363   4.16536   4.16689   4.17013   4.17312
 Alpha virt. eigenvalues --    4.17536   4.17694   4.18114   4.18427   4.18570
 Alpha virt. eigenvalues --    4.18858   4.19186   4.19697   4.19862   4.20278
 Alpha virt. eigenvalues --    4.20594   4.20689   4.21055   4.21444   4.21672
 Alpha virt. eigenvalues --    4.21998   4.22156   4.22455   4.22656   4.22931
 Alpha virt. eigenvalues --    4.23115   4.23303   4.23478   4.24029   4.24179
 Alpha virt. eigenvalues --    4.24484   4.24960   4.25150   4.25418   4.25548
 Alpha virt. eigenvalues --    4.26340   4.26402   4.26809   4.26893   4.27290
 Alpha virt. eigenvalues --    4.27501   4.27687   4.28051   4.28108   4.28468
 Alpha virt. eigenvalues --    4.28857   4.29332   4.29454   4.29712   4.29909
 Alpha virt. eigenvalues --    4.30277   4.30529   4.30608   4.31207   4.31384
 Alpha virt. eigenvalues --    4.31513   4.32160   4.32732   4.32976   4.33275
 Alpha virt. eigenvalues --    4.33713   4.34352   4.34519   4.34848   4.35564
 Alpha virt. eigenvalues --    4.35716   4.36458   4.36518   4.37039   4.37207
 Alpha virt. eigenvalues --    4.37473   4.37718   4.38787   4.39010   4.39552
 Alpha virt. eigenvalues --    4.39588   4.40117   4.40155   4.40304   4.41105
 Alpha virt. eigenvalues --    4.41440   4.41540   4.42151   4.42466   4.42937
 Alpha virt. eigenvalues --    4.43076   4.43400   4.43685   4.44106   4.45025
 Alpha virt. eigenvalues --    4.45490   4.45971   4.46196   4.46432   4.46734
 Alpha virt. eigenvalues --    4.46747   4.47270   4.47886   4.48141   4.48334
 Alpha virt. eigenvalues --    4.48545   4.49776   4.50154   4.50619   4.51219
 Alpha virt. eigenvalues --    4.51489   4.52009   4.52498   4.52713   4.53295
 Alpha virt. eigenvalues --    4.53944   4.54435   4.55594   4.55954   4.56115
 Alpha virt. eigenvalues --    4.56779   4.57104   4.57351   4.58082   4.58707
 Alpha virt. eigenvalues --    4.59551   4.59899   4.60940   4.61646   4.62525
 Alpha virt. eigenvalues --    4.62684   4.63256   4.63461   4.63702   4.64073
 Alpha virt. eigenvalues --    4.64381   4.64865   4.65055   4.65256   4.65516
 Alpha virt. eigenvalues --    4.66011   4.66292   4.66907   4.67218   4.67371
 Alpha virt. eigenvalues --    4.67632   4.68272   4.69441   4.69981   4.69989
 Alpha virt. eigenvalues --    4.70216   4.70595   4.70881   4.71079   4.71879
 Alpha virt. eigenvalues --    4.71987   4.72392   4.72933   4.73179   4.73636
 Alpha virt. eigenvalues --    4.73766   4.74522   4.74985   4.75098   4.75706
 Alpha virt. eigenvalues --    4.76349   4.76774   4.77514   4.77690   4.77965
 Alpha virt. eigenvalues --    4.78352   4.78579   4.78939   4.79252   4.80178
 Alpha virt. eigenvalues --    4.80379   4.81791   4.82107   4.82451   4.82804
 Alpha virt. eigenvalues --    4.83667   4.83943   4.84546   4.85548   4.85954
 Alpha virt. eigenvalues --    4.87100   4.87448   4.88145   4.88543   4.88933
 Alpha virt. eigenvalues --    4.89588   4.89967   4.90200   4.90690   4.90982
 Alpha virt. eigenvalues --    4.91362   4.92236   4.93324   4.93634   4.94083
 Alpha virt. eigenvalues --    4.94215   4.94704   4.96126   4.96336   4.96564
 Alpha virt. eigenvalues --    4.97003   4.97269   4.98526   4.99043   4.99941
 Alpha virt. eigenvalues --    5.00614   5.00915   5.01558   5.02773   5.02869
 Alpha virt. eigenvalues --    5.03349   5.03787   5.04366   5.04660   5.05340
 Alpha virt. eigenvalues --    5.05430   5.06186   5.07101   5.08080   5.08879
 Alpha virt. eigenvalues --    5.09572   5.09893   5.10016   5.10942   5.11313
 Alpha virt. eigenvalues --    5.11756   5.11922   5.12395   5.13014   5.13230
 Alpha virt. eigenvalues --    5.13372   5.13894   5.14068   5.14798   5.15330
 Alpha virt. eigenvalues --    5.15629   5.16337   5.16414   5.16766   5.17097
 Alpha virt. eigenvalues --    5.17509   5.17926   5.18032   5.18598   5.18662
 Alpha virt. eigenvalues --    5.18860   5.19364   5.19828   5.20050   5.20786
 Alpha virt. eigenvalues --    5.21002   5.21412   5.21855   5.21964   5.22580
 Alpha virt. eigenvalues --    5.23137   5.23184   5.23623   5.23895   5.24729
 Alpha virt. eigenvalues --    5.24764   5.25244   5.25545   5.26227   5.27185
 Alpha virt. eigenvalues --    5.27351   5.28436   5.28638   5.29200   5.29520
 Alpha virt. eigenvalues --    5.29844   5.30226   5.30477   5.31199   5.31434
 Alpha virt. eigenvalues --    5.32225   5.32484   5.32567   5.33092   5.33628
 Alpha virt. eigenvalues --    5.33959   5.34491   5.34763   5.35459   5.35566
 Alpha virt. eigenvalues --    5.36140   5.36429   5.37108   5.37398   5.37749
 Alpha virt. eigenvalues --    5.38256   5.38492   5.38673   5.39513   5.40129
 Alpha virt. eigenvalues --    5.40354   5.40432   5.41343   5.41892   5.42278
 Alpha virt. eigenvalues --    5.42427   5.42953   5.43398   5.43927   5.44406
 Alpha virt. eigenvalues --    5.45016   5.46960   5.47659   5.48164   5.49261
 Alpha virt. eigenvalues --    5.49304   5.49919   5.50159   5.50275   5.51296
 Alpha virt. eigenvalues --    5.52234   5.52942   5.53317   5.53881   5.55121
 Alpha virt. eigenvalues --    5.55741   5.56658   5.57319   5.58127   5.58478
 Alpha virt. eigenvalues --    5.59645   5.59885   5.60542   5.60934   5.61278
 Alpha virt. eigenvalues --    5.61637   5.62080   5.62151   5.62217   5.62405
 Alpha virt. eigenvalues --    5.62902   5.63054   5.63367   5.63974   5.64783
 Alpha virt. eigenvalues --    5.65219   5.65374   5.65967   5.67679   5.68555
 Alpha virt. eigenvalues --    5.68875   5.69776   5.70176   5.70514   5.71083
 Alpha virt. eigenvalues --    5.72370   5.72926   5.73131   5.74451   5.75191
 Alpha virt. eigenvalues --    5.75711   5.77293   5.77527   5.80277   5.81172
 Alpha virt. eigenvalues --    5.81904   5.82461   5.83973   5.85028   5.85522
 Alpha virt. eigenvalues --    5.88779   5.89004   5.89527   5.91282   5.91916
 Alpha virt. eigenvalues --    5.93054   5.96439   5.98228   5.99006   6.03750
 Alpha virt. eigenvalues --    6.04356   6.05163   6.05733   6.06092   6.06434
 Alpha virt. eigenvalues --    6.07783   6.08165   6.09813   6.10394   6.10834
 Alpha virt. eigenvalues --    6.11339   6.13778   6.19616   6.21001   6.29733
 Alpha virt. eigenvalues --    6.30662   6.31896   6.35728   6.38732   6.40208
 Alpha virt. eigenvalues --    6.41023   6.42755   6.45146   6.48748   6.49108
 Alpha virt. eigenvalues --    6.50622   6.53430   6.53672   6.56260   6.63715
 Alpha virt. eigenvalues --    6.68043   6.70112   6.72074   6.73722   6.75188
 Alpha virt. eigenvalues --    6.76782   6.77568   6.78376   6.83447   6.84111
 Alpha virt. eigenvalues --    6.86296   6.87326   6.88124   6.88700   6.89610
 Alpha virt. eigenvalues --    6.93253   6.94141   6.98383   6.99365   7.00296
 Alpha virt. eigenvalues --    7.01557   7.02993   7.06837   7.07318   7.11840
 Alpha virt. eigenvalues --    7.19191   7.20609   7.26793   7.35740   7.42590
 Alpha virt. eigenvalues --    7.47647   7.54055   7.56857   7.66256   7.82781
 Alpha virt. eigenvalues --    7.85789   7.90259   7.97247   8.39482   8.58531
 Alpha virt. eigenvalues --    8.79298   9.04896   9.05444   9.53293   9.54755
 Alpha virt. eigenvalues --    9.73017   9.75131  10.16829  10.19993  22.56274
 Alpha virt. eigenvalues --   22.60137  22.65199  22.78596  22.90109  22.93520
 Alpha virt. eigenvalues --   22.96240  23.02180  23.02529  23.04043  23.09155
 Alpha virt. eigenvalues --   23.10200  23.11653  23.12570  23.14443  23.15088
 Alpha virt. eigenvalues --   23.15829  23.17673  23.18084  23.18574  23.19831
 Alpha virt. eigenvalues --   23.20649  23.25041  23.25858  23.26762  23.27819
 Alpha virt. eigenvalues --   23.29694  23.30539  23.31574  23.34390  23.38689
 Alpha virt. eigenvalues --   23.40418  23.41128  23.44276  23.46070  23.49420
 Alpha virt. eigenvalues --   23.56612  23.68782  23.72728  23.74050  23.91089
 Alpha virt. eigenvalues --   24.13492  24.13747  24.26979  32.79351  33.06037
 Alpha virt. eigenvalues --   33.29480  43.94488  44.04547  44.17171  44.20407
 Alpha virt. eigenvalues --   44.31480  57.50080
          Condensed to atoms (all electrons):
 Mulliken charges:
               1
     1  C    0.157968
     2  C   -0.230505
     3  C    0.040828
     4  C   -0.190696
     5  C    0.219333
     6  N   -0.267517
     7  H    0.135958
     8  C   -0.114496
     9  C    0.159567
    10  C   -0.203215
    11  C   -0.219572
    12  C   -0.101836
    13  H    0.150246
    14  H    0.152574
    15  H    0.136993
    16  C    0.343245
    17  C    0.070577
    18  C   -0.247831
    19  C   -0.213517
    20  C   -0.171916
    21  H    0.187496
    22  C   -0.158142
    23  H    0.146797
    24  C   -0.154598
    25  H    0.152643
    26  H    0.149098
    27  H    0.150927
    28  F   -0.219019
    29  C   -0.268615
    30  H    0.089217
    31  H    0.107413
    32  H    0.113931
    33  C   -0.078403
    34  C   -0.003863
    35  C    0.019964
    36  H    0.095445
    37  H    0.076445
    38  C   -0.033094
    39  H    0.090375
    40  H    0.073544
    41  H    0.063965
    42  H    0.093922
    43  H    0.096442
    44  H    0.092495
    45  N   -0.132878
    46  O   -0.349355
    47  H    0.237992
    48  C   -0.140324
    49  C   -0.194643
    50  C   -0.111849
    51  C    0.010461
    52  C   -0.116123
    53  C   -0.140278
    54  H    0.155276
    55  H    0.162034
    56  C    0.163094
    57  C   -0.160312
    58  H    0.147055
    59  H    0.154505
    60  C   -0.107938
    61  C   -0.053030
    62  H    0.152747
    63  C    0.176048
    64  C   -0.043489
    65  C   -0.113066
    66  C   -0.138413
    67  C    0.002118
    68  C   -0.194433
    69  C   -0.138953
    70  C   -0.114077
    71  C   -0.138804
    72  H    0.162960
    73  H    0.152341
    74  C   -0.139754
    75  H    0.146988
    76  H    0.155427
    77  H    0.154747
    78  S    0.860348
    79  O   -0.490269
    80  O   -0.514214
    81  S    0.870086
    82  O   -0.467619
    83  O   -0.511219
    84  N   -0.317844
    85  H    0.146088
    86  H    0.162231
    87  H    0.165764
 Sum of Mulliken charges =  -0.00000
 Mulliken charges with hydrogens summed into heavy atoms:
               1
     1  C    0.157968
     2  C   -0.084417
     3  C    0.040828
     4  C   -0.054739
     5  C    0.219333
     6  N   -0.267517
     8  C   -0.114496
     9  C    0.159567
    10  C   -0.052969
    11  C   -0.082579
    12  C    0.050738
    16  C    0.343245
    17  C    0.070577
    18  C   -0.060335
    19  C   -0.066720
    20  C   -0.019274
    22  C   -0.009045
    24  C   -0.003672
    28  F   -0.219019
    29  C    0.041946
    33  C    0.093487
    34  C    0.160056
    35  C    0.177850
    38  C    0.155844
    45  N   -0.132878
    46  O   -0.349355
    48  C    0.014952
    49  C   -0.032609
    50  C   -0.111849
    51  C    0.010461
    52  C    0.030932
    53  C    0.014227
    56  C    0.163094
    57  C   -0.007565
    60  C    0.057827
    61  C   -0.053030
    63  C    0.176048
    64  C   -0.043489
    65  C   -0.113066
    66  C    0.023818
    67  C    0.002118
    68  C   -0.031473
    69  C    0.013388
    70  C    0.032912
    71  C    0.016623
    74  C    0.014993
    78  S    0.860348
    79  O   -0.490269
    80  O   -0.514214
    81  S    0.870086
    82  O   -0.467619
    83  O   -0.511219
    84  N   -0.079851
 Electronic spatial extent (au):  <R**2>=          28775.8401
 Charge=              0.0000 electrons
 Dipole moment (field-independent basis, Debye):
    X=             -0.4363    Y=              2.0306    Z=              3.3021  Tot=              3.9010
 Quadrupole moment (field-independent basis, Debye-Ang):
   XX=           -258.1227   YY=           -299.9453   ZZ=           -313.5000
   XY=             -1.6728   XZ=             10.4774   YZ=             10.4070
 Traceless Quadrupole moment (field-independent basis, Debye-Ang):
   XX=             32.4000   YY=             -9.4226   ZZ=            -22.9773
   XY=             -1.6728   XZ=             10.4774   YZ=             10.4070
 Octapole moment (field-independent basis, Debye-Ang**2):
  XXX=            -20.5826  YYY=             87.3956  ZZZ=            -47.2063  XYY=             -3.1859
  XXY=            -84.2113  XXZ=             41.3437  XZZ=            -10.2532  YZZ=             11.6685
  YYZ=              3.0601  XYZ=            -42.3303
 Hexadecapole moment (field-independent basis, Debye-Ang**3):
 XXXX=         -19227.3950 YYYY=         -12434.8913 ZZZZ=          -5611.7534 XXXY=           -678.6918
 XXXZ=            312.4519 YYYX=           -838.3038 YYYZ=           -980.3847 ZZZX=            346.4929
 ZZZY=           -870.0058 XXYY=          -4811.1715 XXZZ=          -4456.7228 YYZZ=          -2788.0028
 XXYZ=           -219.6019 YYXZ=            205.4546 ZZXY=           -182.4173
 N-N= 8.326103897783D+03 E-N=-2.381914023122D+04  KE= 3.045571789917D+03
 No NMR shielding tensors so no spin-rotation constants.
 Leave Link  601 at Wed Feb  5 04:53:23 2025, MaxMem=  3758096384 cpu:              18.9 elap:               1.7
 (Enter /ihome/crc/install/gaussian/c01/avx2/tar/g16/l9999.exe)
 Unable to Open any file for archive entry.
 1\1\GINC-SMP-N160\SP\RB3LYP\def2TZVPP\C42H34F1N3O5S2\BIM12\05-Feb-2025
 \0\\#p b3lyp def2tzvpp scf=maxcycle=128 nosymm scrf=(smd,solvent=propy
 lethanoate) empiricaldispersion=gd3bj\\noalkyne_S-ax-R_00_pre_3\\0,1\C
 ,0,3.445088,0.511339,-0.700193\C,0,4.712948,0.601826,-0.146691\C,0,5.2
 81824,-0.549563,0.426011\C,0,4.574615,-1.746554,0.376009\C,0,3.304061,
 -1.772914,-0.236122\N,0,2.770612,-0.64582,-0.72644\H,0,5.014976,-2.657
 086,0.779672\C,0,2.725765,1.676692,-1.290625\C,0,2.443041,2.864711,-0.
 583734\C,0,1.775224,3.90591,-1.241974\C,0,1.64657,2.612982,-3.277263\C
 ,0,1.37872,3.781298,-2.571187\H,0,1.535982,4.813685,-0.685958\H,0,0.84
 5305,4.59839,-3.058943\H,0,1.350364,2.474907,-4.317291\C,0,2.313368,1.
 588277,-2.62383\C,0,2.807173,3.028177,0.850969\C,0,2.518674,2.021498,1
 .783343\C,0,3.421495,4.205884,1.296964\C,0,2.844828,2.186449,3.127589\
 H,0,2.024889,1.103482,1.459822\C,0,3.750052,4.369266,2.642991\H,0,3.65
 8698,4.994139,0.579209\C,0,3.464487,3.359832,3.562096\H,0,2.611433,1.3
 90806,3.838264\H,0,4.236515,5.28901,2.972763\H,0,3.723105,3.486972,4.6
 14799\F,0,2.60964,0.482814,-3.311888\C,0,6.637082,-0.473334,1.06735\H,
 0,6.984471,-1.459662,1.399152\H,0,7.373362,-0.054824,0.366052\H,0,6.60
 1,0.196906,1.93957\C,0,2.888623,-4.118444,0.351511\C,0,1.805838,-3.147
 282,-1.60344\C,0,1.644218,-4.981743,0.517101\H,0,3.278721,-3.867087,1.
 346792\H,0,3.66601,-4.682277,-0.200748\C,0,0.617868,-4.053966,-1.34439
 5\H,0,1.473467,-2.20175,-2.047573\H,0,2.488755,-3.643705,-2.320078\H,0
 ,0.935704,-4.460761,1.188679\H,0,1.915686,-5.945367,0.969034\H,0,-0.12
 1515,-3.527284,-0.71344\H,0,0.142686,-4.327747,-2.296396\N,0,2.526751,
 -2.900099,-0.351499\O,0,1.029751,-5.249664,-0.718173\H,0,1.298681,-0.6
 03349,-0.631226\C,0,-5.399171,2.940917,0.573899\C,0,-4.635564,1.826602
 ,0.326377\C,0,-3.433077,1.591675,1.053493\C,0,-3.024173,2.554469,2.024
 727\C,0,-3.843168,3.692997,2.263727\C,0,-5.005655,3.88113,1.559064\H,0
 ,-6.314276,3.107459,0.003629\H,0,-4.945337,1.117953,-0.442187\C,0,-2.6
 11634,0.440993,0.818884\C,0,-1.799029,2.377576,2.721774\H,0,-3.520276,
 4.416896,3.014438\H,0,-5.625331,4.759383,1.746872\C,0,-0.994778,1.3005
 33,2.455606\C,0,-1.413612,0.340969,1.505163\H,0,-1.497131,3.122836,3.4
 5984\C,0,-3.026839,-0.589366,-0.184185\C,0,-2.285487,-0.826429,-1.3285
 79\C,0,-4.182558,-1.402994,0.054973\C,0,-2.642922,-1.80661,-2.283568\C
 ,0,-4.561976,-2.377461,-0.916582\C,0,-4.955324,-1.293626,1.246914\C,0,
 -3.774747,-2.553439,-2.086281\C,0,-5.715096,-3.177937,-0.686136\C,0,-6
 .058693,-2.087476,1.44333\H,0,-4.66008,-0.57826,2.014825\H,0,-4.076669
 ,-3.305119,-2.817737\C,0,-6.450252,-3.034148,0.463765\H,0,-5.996467,-3
 .914053,-1.441679\H,0,-6.635982,-1.993086,2.364289\H,0,-7.331605,-3.65
 464,0.633389\S,0,-0.286028,-0.964535,1.114774\O,0,-0.998335,-2.199361,
 1.132457\O,0,0.885861,-0.848808,1.923398\S,0,-0.767402,0.040497,-1.587
 744\O,0,-0.985613,1.432646,-1.384826\O,0,-0.174158,-0.384044,-2.815606
 \N,0,0.182698,-0.583783,-0.406471\H,0,5.242832,1.555141,-0.137839\H,0,
 -2.012835,-1.943571,-3.162122\H,0,-0.040132,1.164565,2.962964\\Version
 =ES64L-G16RevC.01\HF=-3058.7373149\RMSD=3.911e-09\Dipole=-0.1716688,0.
 7989081,1.2991621\Quadrupole=24.0885827,-7.005498,-17.0830847,-1.24364
 9,7.7897119,7.737341\PG=C01 [X(C42H34F1N3O5S2)]\\@
 The archive entry for this job was punched.


 KNOWLEDGE IS OF TWO KINDS:  WE KNOW A SUBJECT OURSELVES OR WE KNOW 
 WHERE WE CAN FIND INFORMATION UPON IT.

                                    -- SAMUEL JOHNSON
 Job cpu time:       0 days 16 hours 52 minutes 43.3 seconds.
 Elapsed time:       0 days  1 hours  3 minutes 28.5 seconds.
 File lengths (MBytes):  RWF=   2961 Int=      0 D2E=      0 Chk=    266 Scr=      1
 Normal termination of Gaussian 16 at Wed Feb  5 04:53:23 2025.
