 Entering Gaussian System, Link 0=g16
 Initial command:
 /ihome/crc/install/gaussian/c01/avx2/tar/g16/l1.exe "/scratch/slurm-17508106/Gau-16015.inp" -scrdir="/scratch/slurm-17508106/"
 Entering Link 1 = /ihome/crc/install/gaussian/c01/avx2/tar/g16/l1.exe PID=     16016.
  
 Copyright (c) 1988-2019, Gaussian, Inc.  All Rights Reserved.
  
 This is part of the Gaussian(R) 16 program.  It is based on
 the Gaussian(R) 09 system (copyright 2009, Gaussian, Inc.),
 the Gaussian(R) 03 system (copyright 2003, Gaussian, Inc.),
 the Gaussian(R) 98 system (copyright 1998, Gaussian, Inc.),
 the Gaussian(R) 94 system (copyright 1995, Gaussian, Inc.),
 the Gaussian 92(TM) system (copyright 1992, Gaussian, Inc.),
 the Gaussian 90(TM) system (copyright 1990, Gaussian, Inc.),
 the Gaussian 88(TM) system (copyright 1988, Gaussian, Inc.),
 the Gaussian 86(TM) system (copyright 1986, Carnegie Mellon
 University), and the Gaussian 82(TM) system (copyright 1983,
 Carnegie Mellon University). Gaussian is a federally registered
 trademark of Gaussian, Inc.
  
 This software contains proprietary and confidential information,
 including trade secrets, belonging to Gaussian, Inc.
  
 This software is provided under written license and may be
 used, copied, transmitted, or stored only in accord with that
 written license.
  
 The following legend is applicable only to US Government
 contracts under FAR:
  
                    RESTRICTED RIGHTS LEGEND
  
 Use, reproduction and disclosure by the US Government is
 subject to restrictions as set forth in subparagraphs (a)
 and (c) of the Commercial Computer Software - Restricted
 Rights clause in FAR 52.227-19.
  
 Gaussian, Inc.
 340 Quinnipiac St., Bldg. 40, Wallingford CT 06492
  
  
 ---------------------------------------------------------------
 Warning -- This program may not be used in any manner that
 competes with the business of Gaussian, Inc. or will provide
 assistance to any competitor of Gaussian, Inc.  The licensee
 of this program is prohibited from giving any competitor of
 Gaussian, Inc. access to this program.  By using this program,
 the user acknowledges that Gaussian, Inc. is engaged in the
 business of creating and licensing software in the field of
 computational chemistry and represents and warrants to the
 licensee that it is not a competitor of Gaussian, Inc. and that
 it will not use this program in any manner prohibited above.
 ---------------------------------------------------------------
  

 Cite this work as:
 Gaussian 16, Revision C.01,
 M. J. Frisch, G. W. Trucks, H. B. Schlegel, G. E. Scuseria, 
 M. A. Robb, J. R. Cheeseman, G. Scalmani, V. Barone, 
 G. A. Petersson, H. Nakatsuji, X. Li, M. Caricato, A. V. Marenich, 
 J. Bloino, B. G. Janesko, R. Gomperts, B. Mennucci, H. P. Hratchian, 
 J. V. Ortiz, A. F. Izmaylov, J. L. Sonnenberg, D. Williams-Young, 
 F. Ding, F. Lipparini, F. Egidi, J. Goings, B. Peng, A. Petrone, 
 T. Henderson, D. Ranasinghe, V. G. Zakrzewski, J. Gao, N. Rega, 
 G. Zheng, W. Liang, M. Hada, M. Ehara, K. Toyota, R. Fukuda, 
 J. Hasegawa, M. Ishida, T. Nakajima, Y. Honda, O. Kitao, H. Nakai, 
 T. Vreven, K. Throssell, J. A. Montgomery, Jr., J. E. Peralta, 
 F. Ogliaro, M. J. Bearpark, J. J. Heyd, E. N. Brothers, K. N. Kudin, 
 V. N. Staroverov, T. A. Keith, R. Kobayashi, J. Normand, 
 K. Raghavachari, A. P. Rendell, J. C. Burant, S. S. Iyengar, 
 J. Tomasi, M. Cossi, J. M. Millam, M. Klene, C. Adamo, R. Cammi, 
 J. W. Ochterski, R. L. Martin, K. Morokuma, O. Farkas, 
 J. B. Foresman, and D. J. Fox, Gaussian, Inc., Wallingford CT, 2019.
 
 ******************************************
 Gaussian 16:  ES64L-G16RevC.01  3-Jul-2019
                 9-Nov-2024 
 ******************************************
 %nprocshared=32
 Will use up to   32 processors via shared memory.
 %mem=64GB
 ----------------------------------------------------------------------
 #p b3lyp def2tzvpp scf=maxcycle=128 nosymm scrf=(smd,solvent=propyleth
 anoate) empiricaldispersion=gd3bj
 ----------------------------------------------------------------------
 1/38=1,172=1/1;
 2/12=2,15=1,17=6,18=5,40=1/2;
 3/5=44,7=202,11=2,25=1,30=1,70=32201,72=169,74=-5,124=41/1,2,3;
 4//1;
 5/5=2,7=128,38=5,53=169/2;
 6/7=2,8=2,9=2,10=2,28=1/1;
 99/5=1,9=1/99;
 Leave Link    1 at Sat Nov  9 14:51:28 2024, MaxMem=  8589934592 cpu:               0.6 elap:               0.0
 (Enter /ihome/crc/install/gaussian/c01/avx2/tar/g16/l101.exe)
 -------------------
 Title Card Required
 -------------------
 Symbolic Z-matrix:
 Charge =  0 Multiplicity = 1
 C                     1.86128  -2.39581  -0.10745 
 C                     0.58782  -3.0532   -0.45753 
 C                    -0.26602  -3.4138    0.68487 
 C                     0.24247  -3.33992   1.93959 
 C                     1.61072  -2.92056   2.12429 
 N                     2.34692  -2.41039   1.09326 
 H                    -0.38145  -3.61426   2.78558 
 C                     2.67927  -1.71363  -1.15193 
 C                     4.09698  -1.76352  -1.1575 
 C                     4.81214  -0.97722  -2.06647 
 C                     2.7753   -0.09964  -3.00146 
 C                     4.1628   -0.1444   -2.97547 
 H                     5.9013   -1.03874  -2.06611 
 H                     4.7413    0.46389  -3.67216 
 H                     2.22014   0.54011  -3.68817 
 C                     2.06439  -0.88845  -2.10557 
 C                     4.89824  -2.6631   -0.27469 
 C                     5.83913  -2.11873   0.60866 
 C                     4.79821  -4.05575  -0.38777 
 C                     6.64188  -2.95197   1.38896 
 H                     5.93092  -1.0334    0.69317 
 C                     5.60036  -4.88751   0.39224 
 H                     4.10907  -4.50299  -1.1055 
 C                     6.52062  -4.33861   1.28745 
 H                     7.36584  -2.51378   2.07902 
 H                     5.50218  -5.9681    0.27434 
 H                     7.14923  -4.98968   1.89818 
 F                     0.736    -0.80141  -2.15599 
 C                    -1.65276  -3.8908    0.40667 
 H                    -2.21011  -3.10169  -0.12075 
 H                    -1.61856  -4.77476  -0.25016 
 H                    -2.17866  -4.15303   1.33303 
 C                     1.61521  -3.47796   4.53824 
 C                     3.62327  -2.60932   3.49298 
 C                     2.45843  -4.62609   5.08431 
 H                     0.58713  -3.80971   4.38029 
 H                     1.6092   -2.64714   5.26086 
 C                     4.37633  -3.79783   4.0767 
 H                     4.05211  -2.30364   2.53534 
 H                     3.65164  -1.7656    4.2003 
 H                     2.40484  -5.47984   4.38175 
 H                     2.05533  -4.945     6.05439 
 H                     4.39005  -4.61923   3.3352 
 H                     5.4123   -3.50697   4.29551 
 N                     2.21822  -2.98293   3.30188 
 O                     3.79019  -4.23208   5.28006 
 I                     1.23798  -4.9556   -1.4062 
 H                     0.03335  -2.5745   -1.26754 
 C                    -2.47606   4.95213  -3.95915 
 C                    -2.70979   4.00167  -2.9951 
 C                    -1.62993   3.35563  -2.32605 
 C                    -0.29752   3.70011  -2.70372 
 C                    -0.08862   4.69834  -3.69603 
 C                    -1.15123   5.31467  -4.30831 
 H                    -3.31785   5.4286   -4.46415 
 H                    -3.73486   3.72589  -2.74615 
 C                    -1.84017   2.35814  -1.31432 
 C                     0.79927   3.03095  -2.09646 
 H                     0.93784   4.95645  -3.96518 
 H                    -0.98093   6.07607  -5.07128 
 C                     0.58279   2.03099  -1.1851 
 C                    -0.73769   1.69306  -0.80714 
 H                     1.81517   3.31156  -2.38297 
 C                    -3.23018   2.04937  -0.85031 
 C                    -3.79474   0.79626  -1.01187 
 C                    -3.99938   3.06255  -0.18376 
 C                    -5.11599   0.50452  -0.60092 
 C                    -5.34059   2.77599   0.21122 
 C                    -3.46425   4.34667   0.12722 
 C                    -5.88145   1.48342  -0.02323 
 C                    -6.11005   3.78452   0.85642 
 C                    -4.22837   5.29534   0.76208 
 H                    -2.42961   4.5724   -0.13137 
 H                    -6.9088    1.27721   0.28329 
 C                    -5.57084   5.01819   1.12218 
 H                    -7.13724   3.54973   1.14327 
 H                    -3.79596   6.26939   0.9965 
 H                    -6.16746   5.78377   1.62093 
 S                    -0.95581   0.30388   0.28865 
 O                    -1.75072   0.75405   1.39317 
 O                     0.35588  -0.19023   0.61051 
 S                    -2.80415  -0.5378   -1.65242 
 O                    -2.26581  -0.09188  -2.90781 
 O                    -3.64081  -1.70843  -1.71879 
 N                    -1.69775  -0.79786  -0.56637 
 N                     1.94327  -7.26836  -2.48631 
 C                     1.19864  -8.20889  -3.00488 
 C                     1.76567  -9.60272  -2.8821 
 C                     3.13219  -9.33898  -2.26002 
 C                     3.11165  -7.8376   -1.97209 
 O                     3.96456  -7.21591  -1.38942 
 O                     0.07078  -8.02123  -3.57888 
 H                     1.09726  -10.2022  -2.24666 
 H                     1.79533  -10.07658  -3.87293 
 H                     3.96475  -9.54621  -2.94781 
 H                     3.32456  -9.88704  -1.32869 
 C                     0.77355  -5.09594  -5.00401 
 C                     0.90755  -3.73111  -5.18554 
 C                    -0.11844  -2.883    -4.72803 
 C                    -1.22003  -3.4463   -4.09563 
 C                    -1.30658  -4.85485  -3.96844 
 N                    -0.30029  -5.6351   -4.40028 
 H                    -2.03124  -2.79976  -3.75738 
 C                     1.82546  -6.06244  -5.42768 
 C                     1.53001  -7.23097  -6.1639 
 C                     2.53728  -8.185    -6.36205 
 C                     4.13419  -6.83003  -5.15556 
 C                     3.82352  -7.99019  -5.86012 
 H                     2.3096   -9.08171  -6.94071 
 H                     4.59459  -8.74352  -6.02959 
 H                     5.12403  -6.64366  -4.73761 
 C                     3.13046  -5.89355  -4.95686 
 C                     0.17153  -7.47607  -6.72599 
 C                    -0.43847  -8.72749  -6.56997 
 C                    -0.52015  -6.47075  -7.41778 
 C                    -1.71656  -8.96446  -7.07628 
 H                     0.08115  -9.51196  -6.017 
 C                    -1.79555  -6.70733  -7.92499 
 H                    -0.05243  -5.49403  -7.55868 
 C                    -2.40094  -7.95403  -7.75126 
 H                    -2.18158  -9.94172  -6.93469 
 H                    -2.31982  -5.91359  -8.46022 
 H                    -3.40324  -8.13608  -8.14339 
 F                     3.41814  -4.81076  -4.22894 
 C                    -0.05544  -1.4097   -5.00303 
 H                     0.98445  -1.05719  -4.99273 
 H                    -0.45598  -1.21595  -6.01152 
 H                    -0.65238  -0.83938  -4.28126 
 C                    -3.42346  -4.76823  -2.6951 
 C                    -2.84608  -6.77751  -3.91557 
 C                    -4.64939  -4.60812  -3.58025 
 H                    -3.06623  -3.79824  -2.33482 
 H                    -3.70779  -5.36868  -1.81428 
 C                    -4.10829  -6.55488  -4.74539 
 H                    -2.07794  -7.24796  -4.54167 
 H                    -3.06432  -7.44893  -3.0693 
 H                    -4.40531  -3.96378  -4.44785 
 H                    -5.46989  -4.13901  -3.02097 
 H                    -3.83999  -5.98458  -5.65724 
 H                    -4.53191  -7.5209   -5.05544 
 N                    -2.37462  -5.49382  -3.39786 
 O                    -5.10195  -5.87006  -4.02197 
 H                     1.79026  -3.32606  -5.68039 
 H                    -0.12104  -6.99321  -3.87991 
 H                     1.40885   1.48383  -0.72998 
 H                    -5.50028  -0.50268  -0.76011 
 
 ITRead=  0  0  0  0  0  0  0  0  0  0  0  0  0  0  0  0  0  0  0  0
 ITRead=  0  0  0  0  0  0  0  0  0  0  0  0  0  0  0  0  0  0  0  0
 ITRead=  0  0  0  0  0  0  0  0  0  0  0  0  0  0  0  0  0  0  0  0
 ITRead=  0  0  0  0  0  0  0  0  0  0  0  0  0  0  0  0  0  0  0  0
 ITRead=  0  0  0  0  0  0  0  0  0  0  0  0  0  0  0  0  0  0  0  0
 ITRead=  0  0  0  0  0  0  0  0  0  0  0  0  0  0  0  0  0  0  0  0
 ITRead=  0  0  0  0  0  0  0  0  0  0  0  0  0  0  0  0  0  0  0  0
 ITRead=  0  0  0  0  0  0
 MicOpt= -1 -1 -1 -1 -1 -1 -1 -1 -1 -1 -1 -1 -1 -1 -1 -1 -1 -1 -1 -1
 MicOpt= -1 -1 -1 -1 -1 -1 -1 -1 -1 -1 -1 -1 -1 -1 -1 -1 -1 -1 -1 -1
 MicOpt= -1 -1 -1 -1 -1 -1 -1 -1 -1 -1 -1 -1 -1 -1 -1 -1 -1 -1 -1 -1
 MicOpt= -1 -1 -1 -1 -1 -1 -1 -1 -1 -1 -1 -1 -1 -1 -1 -1 -1 -1 -1 -1
 MicOpt= -1 -1 -1 -1 -1 -1 -1 -1 -1 -1 -1 -1 -1 -1 -1 -1 -1 -1 -1 -1
 MicOpt= -1 -1 -1 -1 -1 -1 -1 -1 -1 -1 -1 -1 -1 -1 -1 -1 -1 -1 -1 -1
 MicOpt= -1 -1 -1 -1 -1 -1 -1 -1 -1 -1 -1 -1 -1 -1 -1 -1 -1 -1 -1 -1
 MicOpt= -1 -1 -1 -1 -1 -1
 NAtoms=    146 NQM=      146 NQMF=       0 NMMI=      0 NMMIF=      0
                NMic=       0 NMicF=      0.
                    Isotopes and Nuclear Properties:
 (Nuclear quadrupole moments (NQMom) in fm**2, nuclear magnetic moments (NMagM)
  in nuclear magnetons)

  Atom         1           2           3           4           5           6           7           8           9          10
 IAtWgt=          12          12          12          12          12          14           1          12          12          12
 AtmWgt=  12.0000000  12.0000000  12.0000000  12.0000000  12.0000000  14.0030740   1.0078250  12.0000000  12.0000000  12.0000000
 NucSpn=           0           0           0           0           0           2           1           0           0           0
 AtZEff=  -0.0000000  -0.0000000  -0.0000000  -0.0000000  -0.0000000  -0.0000000  -0.0000000  -0.0000000  -0.0000000  -0.0000000
 NQMom=    0.0000000   0.0000000   0.0000000   0.0000000   0.0000000   2.0440000   0.0000000   0.0000000   0.0000000   0.0000000
 NMagM=    0.0000000   0.0000000   0.0000000   0.0000000   0.0000000   0.4037610   2.7928460   0.0000000   0.0000000   0.0000000
 AtZNuc=   6.0000000   6.0000000   6.0000000   6.0000000   6.0000000   7.0000000   1.0000000   6.0000000   6.0000000   6.0000000

  Atom        11          12          13          14          15          16          17          18          19          20
 IAtWgt=          12          12           1           1           1          12          12          12          12          12
 AtmWgt=  12.0000000  12.0000000   1.0078250   1.0078250   1.0078250  12.0000000  12.0000000  12.0000000  12.0000000  12.0000000
 NucSpn=           0           0           1           1           1           0           0           0           0           0
 AtZEff=  -0.0000000  -0.0000000  -0.0000000  -0.0000000  -0.0000000  -0.0000000  -0.0000000  -0.0000000  -0.0000000  -0.0000000
 NQMom=    0.0000000   0.0000000   0.0000000   0.0000000   0.0000000   0.0000000   0.0000000   0.0000000   0.0000000   0.0000000
 NMagM=    0.0000000   0.0000000   2.7928460   2.7928460   2.7928460   0.0000000   0.0000000   0.0000000   0.0000000   0.0000000
 AtZNuc=   6.0000000   6.0000000   1.0000000   1.0000000   1.0000000   6.0000000   6.0000000   6.0000000   6.0000000   6.0000000

  Atom        21          22          23          24          25          26          27          28          29          30
 IAtWgt=           1          12           1          12           1           1           1          19          12           1
 AtmWgt=   1.0078250  12.0000000   1.0078250  12.0000000   1.0078250   1.0078250   1.0078250  18.9984032  12.0000000   1.0078250
 NucSpn=           1           0           1           0           1           1           1           1           0           1
 AtZEff=  -0.0000000  -0.0000000  -0.0000000  -0.0000000  -0.0000000  -0.0000000  -0.0000000  -0.0000000  -0.0000000  -0.0000000
 NQMom=    0.0000000   0.0000000   0.0000000   0.0000000   0.0000000   0.0000000   0.0000000   0.0000000   0.0000000   0.0000000
 NMagM=    2.7928460   0.0000000   2.7928460   0.0000000   2.7928460   2.7928460   2.7928460   2.6288670   0.0000000   2.7928460
 AtZNuc=   1.0000000   6.0000000   1.0000000   6.0000000   1.0000000   1.0000000   1.0000000   9.0000000   6.0000000   1.0000000

  Atom        31          32          33          34          35          36          37          38          39          40
 IAtWgt=           1           1          12          12          12           1           1          12           1           1
 AtmWgt=   1.0078250   1.0078250  12.0000000  12.0000000  12.0000000   1.0078250   1.0078250  12.0000000   1.0078250   1.0078250
 NucSpn=           1           1           0           0           0           1           1           0           1           1
 AtZEff=  -0.0000000  -0.0000000  -0.0000000  -0.0000000  -0.0000000  -0.0000000  -0.0000000  -0.0000000  -0.0000000  -0.0000000
 NQMom=    0.0000000   0.0000000   0.0000000   0.0000000   0.0000000   0.0000000   0.0000000   0.0000000   0.0000000   0.0000000
 NMagM=    2.7928460   2.7928460   0.0000000   0.0000000   0.0000000   2.7928460   2.7928460   0.0000000   2.7928460   2.7928460
 AtZNuc=   1.0000000   1.0000000   6.0000000   6.0000000   6.0000000   1.0000000   1.0000000   6.0000000   1.0000000   1.0000000

  Atom        41          42          43          44          45          46          47          48          49          50
 IAtWgt=           1           1           1           1          14          16         127           1          12          12
 AtmWgt=   1.0078250   1.0078250   1.0078250   1.0078250  14.0030740  15.9949146 126.9004000   1.0078250  12.0000000  12.0000000
 NucSpn=           1           1           1           1           2           0           5           1           0           0
 AtZEff=  -0.0000000  -0.0000000  -0.0000000  -0.0000000  -0.0000000  -0.0000000  -0.0000000  -0.0000000  -0.0000000  -0.0000000
 NQMom=    0.0000000   0.0000000   0.0000000   0.0000000   2.0440000   0.0000000 -71.0000000   0.0000000   0.0000000   0.0000000
 NMagM=    2.7928460   2.7928460   2.7928460   2.7928460   0.4037610   0.0000000   2.8132800   2.7928460   0.0000000   0.0000000
 AtZNuc=   1.0000000   1.0000000   1.0000000   1.0000000   7.0000000   8.0000000  53.0000000   1.0000000   6.0000000   6.0000000

  Atom        51          52          53          54          55          56          57          58          59          60
 IAtWgt=          12          12          12          12           1           1          12          12           1           1
 AtmWgt=  12.0000000  12.0000000  12.0000000  12.0000000   1.0078250   1.0078250  12.0000000  12.0000000   1.0078250   1.0078250
 NucSpn=           0           0           0           0           1           1           0           0           1           1
 AtZEff=  -0.0000000  -0.0000000  -0.0000000  -0.0000000  -0.0000000  -0.0000000  -0.0000000  -0.0000000  -0.0000000  -0.0000000
 NQMom=    0.0000000   0.0000000   0.0000000   0.0000000   0.0000000   0.0000000   0.0000000   0.0000000   0.0000000   0.0000000
 NMagM=    0.0000000   0.0000000   0.0000000   0.0000000   2.7928460   2.7928460   0.0000000   0.0000000   2.7928460   2.7928460
 AtZNuc=   6.0000000   6.0000000   6.0000000   6.0000000   1.0000000   1.0000000   6.0000000   6.0000000   1.0000000   1.0000000

  Atom        61          62          63          64          65          66          67          68          69          70
 IAtWgt=          12          12           1          12          12          12          12          12          12          12
 AtmWgt=  12.0000000  12.0000000   1.0078250  12.0000000  12.0000000  12.0000000  12.0000000  12.0000000  12.0000000  12.0000000
 NucSpn=           0           0           1           0           0           0           0           0           0           0
 AtZEff=  -0.0000000  -0.0000000  -0.0000000  -0.0000000  -0.0000000  -0.0000000  -0.0000000  -0.0000000  -0.0000000  -0.0000000
 NQMom=    0.0000000   0.0000000   0.0000000   0.0000000   0.0000000   0.0000000   0.0000000   0.0000000   0.0000000   0.0000000
 NMagM=    0.0000000   0.0000000   2.7928460   0.0000000   0.0000000   0.0000000   0.0000000   0.0000000   0.0000000   0.0000000
 AtZNuc=   6.0000000   6.0000000   1.0000000   6.0000000   6.0000000   6.0000000   6.0000000   6.0000000   6.0000000   6.0000000

  Atom        71          72          73          74          75          76          77          78          79          80
 IAtWgt=          12          12           1           1          12           1           1           1          32          16
 AtmWgt=  12.0000000  12.0000000   1.0078250   1.0078250  12.0000000   1.0078250   1.0078250   1.0078250  31.9720718  15.9949146
 NucSpn=           0           0           1           1           0           1           1           1           0           0
 AtZEff=  -0.0000000  -0.0000000  -0.0000000  -0.0000000  -0.0000000  -0.0000000  -0.0000000  -0.0000000  -0.0000000  -0.0000000
 NQMom=    0.0000000   0.0000000   0.0000000   0.0000000   0.0000000   0.0000000   0.0000000   0.0000000   0.0000000   0.0000000
 NMagM=    0.0000000   0.0000000   2.7928460   2.7928460   0.0000000   2.7928460   2.7928460   2.7928460   0.0000000   0.0000000
 AtZNuc=   6.0000000   6.0000000   1.0000000   1.0000000   6.0000000   1.0000000   1.0000000   1.0000000  16.0000000   8.0000000

  Atom        81          82          83          84          85          86          87          88          89          90
 IAtWgt=          16          32          16          16          14          14          12          12          12          12
 AtmWgt=  15.9949146  31.9720718  15.9949146  15.9949146  14.0030740  14.0030740  12.0000000  12.0000000  12.0000000  12.0000000
 NucSpn=           0           0           0           0           2           2           0           0           0           0
 AtZEff=  -0.0000000  -0.0000000  -0.0000000  -0.0000000  -0.0000000  -0.0000000  -0.0000000  -0.0000000  -0.0000000  -0.0000000
 NQMom=    0.0000000   0.0000000   0.0000000   0.0000000   2.0440000   2.0440000   0.0000000   0.0000000   0.0000000   0.0000000
 NMagM=    0.0000000   0.0000000   0.0000000   0.0000000   0.4037610   0.4037610   0.0000000   0.0000000   0.0000000   0.0000000
 AtZNuc=   8.0000000  16.0000000   8.0000000   8.0000000   7.0000000   7.0000000   6.0000000   6.0000000   6.0000000   6.0000000

  Atom        91          92          93          94          95          96          97          98          99         100
 IAtWgt=          16          16           1           1           1           1          12          12          12          12
 AtmWgt=  15.9949146  15.9949146   1.0078250   1.0078250   1.0078250   1.0078250  12.0000000  12.0000000  12.0000000  12.0000000
 NucSpn=           0           0           1           1           1           1           0           0           0           0
 AtZEff=  -0.0000000  -0.0000000  -0.0000000  -0.0000000  -0.0000000  -0.0000000  -0.0000000  -0.0000000  -0.0000000  -0.0000000
 NQMom=    0.0000000   0.0000000   0.0000000   0.0000000   0.0000000   0.0000000   0.0000000   0.0000000   0.0000000   0.0000000
 NMagM=    0.0000000   0.0000000   2.7928460   2.7928460   2.7928460   2.7928460   0.0000000   0.0000000   0.0000000   0.0000000
 AtZNuc=   8.0000000   8.0000000   1.0000000   1.0000000   1.0000000   1.0000000   6.0000000   6.0000000   6.0000000   6.0000000

  Atom       101         102         103         104         105         106         107         108         109         110
 IAtWgt=          12          14           1          12          12          12          12          12           1           1
 AtmWgt=  12.0000000  14.0030740   1.0078250  12.0000000  12.0000000  12.0000000  12.0000000  12.0000000   1.0078250   1.0078250
 NucSpn=           0           2           1           0           0           0           0           0           1           1
 AtZEff=  -0.0000000  -0.0000000  -0.0000000  -0.0000000  -0.0000000  -0.0000000  -0.0000000  -0.0000000  -0.0000000  -0.0000000
 NQMom=    0.0000000   2.0440000   0.0000000   0.0000000   0.0000000   0.0000000   0.0000000   0.0000000   0.0000000   0.0000000
 NMagM=    0.0000000   0.4037610   2.7928460   0.0000000   0.0000000   0.0000000   0.0000000   0.0000000   2.7928460   2.7928460
 AtZNuc=   6.0000000   7.0000000   1.0000000   6.0000000   6.0000000   6.0000000   6.0000000   6.0000000   1.0000000   1.0000000

  Atom       111         112         113         114         115         116         117         118         119         120
 IAtWgt=           1          12          12          12          12          12           1          12           1          12
 AtmWgt=   1.0078250  12.0000000  12.0000000  12.0000000  12.0000000  12.0000000   1.0078250  12.0000000   1.0078250  12.0000000
 NucSpn=           1           0           0           0           0           0           1           0           1           0
 AtZEff=  -0.0000000  -0.0000000  -0.0000000  -0.0000000  -0.0000000  -0.0000000  -0.0000000  -0.0000000  -0.0000000  -0.0000000
 NQMom=    0.0000000   0.0000000   0.0000000   0.0000000   0.0000000   0.0000000   0.0000000   0.0000000   0.0000000   0.0000000
 NMagM=    2.7928460   0.0000000   0.0000000   0.0000000   0.0000000   0.0000000   2.7928460   0.0000000   2.7928460   0.0000000
 AtZNuc=   1.0000000   6.0000000   6.0000000   6.0000000   6.0000000   6.0000000   1.0000000   6.0000000   1.0000000   6.0000000

  Atom       121         122         123         124         125         126         127         128         129         130
 IAtWgt=           1           1           1          19          12           1           1           1          12          12
 AtmWgt=   1.0078250   1.0078250   1.0078250  18.9984032  12.0000000   1.0078250   1.0078250   1.0078250  12.0000000  12.0000000
 NucSpn=           1           1           1           1           0           1           1           1           0           0
 AtZEff=  -0.0000000  -0.0000000  -0.0000000  -0.0000000  -0.0000000  -0.0000000  -0.0000000  -0.0000000  -0.0000000  -0.0000000
 NQMom=    0.0000000   0.0000000   0.0000000   0.0000000   0.0000000   0.0000000   0.0000000   0.0000000   0.0000000   0.0000000
 NMagM=    2.7928460   2.7928460   2.7928460   2.6288670   0.0000000   2.7928460   2.7928460   2.7928460   0.0000000   0.0000000
 AtZNuc=   1.0000000   1.0000000   1.0000000   9.0000000   6.0000000   1.0000000   1.0000000   1.0000000   6.0000000   6.0000000

  Atom       131         132         133         134         135         136         137         138         139         140
 IAtWgt=          12           1           1          12           1           1           1           1           1           1
 AtmWgt=  12.0000000   1.0078250   1.0078250  12.0000000   1.0078250   1.0078250   1.0078250   1.0078250   1.0078250   1.0078250
 NucSpn=           0           1           1           0           1           1           1           1           1           1
 AtZEff=  -0.0000000  -0.0000000  -0.0000000  -0.0000000  -0.0000000  -0.0000000  -0.0000000  -0.0000000  -0.0000000  -0.0000000
 NQMom=    0.0000000   0.0000000   0.0000000   0.0000000   0.0000000   0.0000000   0.0000000   0.0000000   0.0000000   0.0000000
 NMagM=    0.0000000   2.7928460   2.7928460   0.0000000   2.7928460   2.7928460   2.7928460   2.7928460   2.7928460   2.7928460
 AtZNuc=   6.0000000   1.0000000   1.0000000   6.0000000   1.0000000   1.0000000   1.0000000   1.0000000   1.0000000   1.0000000

  Atom       141         142         143         144         145         146
 IAtWgt=          14          16           1           1           1           1
 AtmWgt=  14.0030740  15.9949146   1.0078250   1.0078250   1.0078250   1.0078250
 NucSpn=           2           0           1           1           1           1
 AtZEff=  -0.0000000  -0.0000000  -0.0000000  -0.0000000  -0.0000000  -0.0000000
 NQMom=    2.0440000   0.0000000   0.0000000   0.0000000   0.0000000   0.0000000
 NMagM=    0.4037610   0.0000000   2.7928460   2.7928460   2.7928460   2.7928460
 AtZNuc=   7.0000000   8.0000000   1.0000000   1.0000000   1.0000000   1.0000000
 Leave Link  101 at Sat Nov  9 14:51:28 2024, MaxMem=  8589934592 cpu:               2.5 elap:               0.1
 (Enter /ihome/crc/install/gaussian/c01/avx2/tar/g16/l202.exe)
 Symmetry turned off by external request.
 Stoichiometry    C68H59F2IN6O8S2
 Framework group  C1[X(C68H59F2IN6O8S2)]
 Deg. of freedom   432
 Full point group                 C1      NOp   1
                          Input orientation:                          
 ---------------------------------------------------------------------
 Center     Atomic      Atomic             Coordinates (Angstroms)
 Number     Number       Type             X           Y           Z
 ---------------------------------------------------------------------
      1          6           0        1.861275   -2.395812   -0.107450
      2          6           0        0.587822   -3.053203   -0.457530
      3          6           0       -0.266021   -3.413796    0.684866
      4          6           0        0.242468   -3.339918    1.939588
      5          6           0        1.610717   -2.920562    2.124288
      6          7           0        2.346919   -2.410394    1.093261
      7          1           0       -0.381452   -3.614261    2.785576
      8          6           0        2.679270   -1.713625   -1.151931
      9          6           0        4.096976   -1.763516   -1.157498
     10          6           0        4.812135   -0.977221   -2.066470
     11          6           0        2.775299   -0.099643   -3.001462
     12          6           0        4.162803   -0.144398   -2.975470
     13          1           0        5.901298   -1.038737   -2.066111
     14          1           0        4.741303    0.463893   -3.672155
     15          1           0        2.220142    0.540114   -3.688166
     16          6           0        2.064393   -0.888454   -2.105567
     17          6           0        4.898238   -2.663098   -0.274691
     18          6           0        5.839128   -2.118727    0.608661
     19          6           0        4.798213   -4.055746   -0.387765
     20          6           0        6.641881   -2.951970    1.388957
     21          1           0        5.930921   -1.033404    0.693166
     22          6           0        5.600356   -4.887505    0.392238
     23          1           0        4.109074   -4.502990   -1.105504
     24          6           0        6.520621   -4.338607    1.287453
     25          1           0        7.365837   -2.513782    2.079024
     26          1           0        5.502178   -5.968097    0.274340
     27          1           0        7.149228   -4.989683    1.898183
     28          9           0        0.735998   -0.801408   -2.155995
     29          6           0       -1.652759   -3.890800    0.406665
     30          1           0       -2.210112   -3.101689   -0.120748
     31          1           0       -1.618556   -4.774755   -0.250158
     32          1           0       -2.178663   -4.153026    1.333029
     33          6           0        1.615214   -3.477961    4.538239
     34          6           0        3.623266   -2.609324    3.492976
     35          6           0        2.458430   -4.626086    5.084307
     36          1           0        0.587130   -3.809711    4.380286
     37          1           0        1.609199   -2.647135    5.260857
     38          6           0        4.376328   -3.797831    4.076700
     39          1           0        4.052106   -2.303636    2.535339
     40          1           0        3.651635   -1.765596    4.200296
     41          1           0        2.404840   -5.479837    4.381753
     42          1           0        2.055330   -4.944998    6.054390
     43          1           0        4.390050   -4.619231    3.335197
     44          1           0        5.412298   -3.506968    4.295507
     45          7           0        2.218219   -2.982929    3.301875
     46          8           0        3.790192   -4.232078    5.280062
     47         53           0        1.237976   -4.955595   -1.406203
     48          1           0        0.033352   -2.574499   -1.267540
     49          6           0       -2.476060    4.952133   -3.959146
     50          6           0       -2.709793    4.001668   -2.995103
     51          6           0       -1.629927    3.355626   -2.326050
     52          6           0       -0.297520    3.700110   -2.703724
     53          6           0       -0.088622    4.698341   -3.696030
     54          6           0       -1.151234    5.314667   -4.308306
     55          1           0       -3.317854    5.428597   -4.464147
     56          1           0       -3.734858    3.725893   -2.746154
     57          6           0       -1.840166    2.358138   -1.314324
     58          6           0        0.799265    3.030952   -2.096463
     59          1           0        0.937841    4.956452   -3.965181
     60          1           0       -0.980927    6.076069   -5.071280
     61          6           0        0.582786    2.030994   -1.185096
     62          6           0       -0.737692    1.693055   -0.807144
     63          1           0        1.815172    3.311562   -2.382965
     64          6           0       -3.230178    2.049372   -0.850311
     65          6           0       -3.794736    0.796255   -1.011869
     66          6           0       -3.999376    3.062554   -0.183759
     67          6           0       -5.115986    0.504515   -0.600918
     68          6           0       -5.340592    2.775987    0.211221
     69          6           0       -3.464247    4.346668    0.127223
     70          6           0       -5.881451    1.483422   -0.023232
     71          6           0       -6.110050    3.784518    0.856417
     72          6           0       -4.228375    5.295344    0.762077
     73          1           0       -2.429611    4.572403   -0.131373
     74          1           0       -6.908803    1.277207    0.283285
     75          6           0       -5.570839    5.018188    1.122182
     76          1           0       -7.137241    3.549733    1.143273
     77          1           0       -3.795963    6.269394    0.996504
     78          1           0       -6.167458    5.783771    1.620927
     79         16           0       -0.955806    0.303876    0.288646
     80          8           0       -1.750715    0.754052    1.393171
     81          8           0        0.355884   -0.190229    0.610509
     82         16           0       -2.804149   -0.537795   -1.652415
     83          8           0       -2.265812   -0.091882   -2.907811
     84          8           0       -3.640814   -1.708429   -1.718791
     85          7           0       -1.697748   -0.797858   -0.566373
     86          7           0        1.943272   -7.268359   -2.486310
     87          6           0        1.198643   -8.208894   -3.004880
     88          6           0        1.765673   -9.602724   -2.882100
     89          6           0        3.132192   -9.338980   -2.260019
     90          6           0        3.111655   -7.837602   -1.972089
     91          8           0        3.964556   -7.215913   -1.389422
     92          8           0        0.070776   -8.021234   -3.578875
     93          1           0        1.097257  -10.202200   -2.246656
     94          1           0        1.795330  -10.076582   -3.872933
     95          1           0        3.964752   -9.546209   -2.947810
     96          1           0        3.324557   -9.887043   -1.328693
     97          6           0        0.773552   -5.095940   -5.004011
     98          6           0        0.907548   -3.731112   -5.185542
     99          6           0       -0.118439   -2.882998   -4.728026
    100          6           0       -1.220027   -3.446297   -4.095631
    101          6           0       -1.306584   -4.854846   -3.968435
    102          7           0       -0.300294   -5.635103   -4.400277
    103          1           0       -2.031239   -2.799756   -3.757381
    104          6           0        1.825458   -6.062438   -5.427677
    105          6           0        1.530013   -7.230971   -6.163903
    106          6           0        2.537279   -8.185004   -6.362049
    107          6           0        4.134194   -6.830026   -5.155561
    108          6           0        3.823517   -7.990190   -5.860118
    109          1           0        2.309603   -9.081708   -6.940706
    110          1           0        4.594592   -8.743516   -6.029587
    111          1           0        5.124034   -6.643659   -4.737609
    112          6           0        3.130459   -5.893550   -4.956861
    113          6           0        0.171532   -7.476067   -6.725992
    114          6           0       -0.438467   -8.727494   -6.569968
    115          6           0       -0.520148   -6.470747   -7.417779
    116          6           0       -1.716558   -8.964463   -7.076279
    117          1           0        0.081149   -9.511962   -6.017002
    118          6           0       -1.795550   -6.707326   -7.924987
    119          1           0       -0.052425   -5.494034   -7.558682
    120          6           0       -2.400944   -7.954032   -7.751264
    121          1           0       -2.181577   -9.941720   -6.934691
    122          1           0       -2.319821   -5.913586   -8.460219
    123          1           0       -3.403242   -8.136084   -8.143394
    124          9           0        3.418141   -4.810755   -4.228937
    125          6           0       -0.055438   -1.409695   -5.003026
    126          1           0        0.984450   -1.057185   -4.992725
    127          1           0       -0.455978   -1.215946   -6.011520
    128          1           0       -0.652375   -0.839376   -4.281258
    129          6           0       -3.423463   -4.768230   -2.695099
    130          6           0       -2.846077   -6.777508   -3.915572
    131          6           0       -4.649386   -4.608122   -3.580250
    132          1           0       -3.066232   -3.798243   -2.334819
    133          1           0       -3.707788   -5.368684   -1.814280
    134          6           0       -4.108290   -6.554880   -4.745388
    135          1           0       -2.077943   -7.247956   -4.541674
    136          1           0       -3.064321   -7.448926   -3.069296
    137          1           0       -4.405315   -3.963776   -4.447848
    138          1           0       -5.469889   -4.139010   -3.020973
    139          1           0       -3.839989   -5.984575   -5.657236
    140          1           0       -4.531909   -7.520896   -5.055442
    141          7           0       -2.374616   -5.493818   -3.397859
    142          8           0       -5.101948   -5.870061   -4.021973
    143          1           0        1.790262   -3.326055   -5.680393
    144          1           0       -0.121040   -6.993206   -3.879911
    145          1           0        1.408853    1.483834   -0.729976
    146          1           0       -5.500281   -0.502682   -0.760111
 ---------------------------------------------------------------------
 Rotational constants (GHZ):           0.0279416           0.0174820           0.0138576
 Leave Link  202 at Sat Nov  9 14:51:28 2024, MaxMem=  8589934592 cpu:               0.4 elap:               0.0
 (Enter /ihome/crc/install/gaussian/c01/avx2/tar/g16/l301.exe)
 Standard basis: def2TZVPP (5D, 7F)
 Ernie: Thresh=  0.10000D-02 Tol=  0.10000D-05 Strict=F.
  3564 basis functions,  5534 primitive gaussians,  4064 cartesian basis functions
   324 alpha electrons      324 beta electrons
       nuclear repulsion energy     18677.5525423340 Hartrees.
 IExCor=  402 DFT=T Ex+Corr=B3LYP ExCW=0 ScaHFX=  0.200000
 ScaDFX=  0.800000  0.720000  1.000000  0.810000 ScalE2=  1.000000  1.000000
 IRadAn=      5 IRanWt=     -1 IRanGd=            0 ICorTp=0 IEmpDi=141
 NAtoms=  146 NActive=  146 NUniq=  146 SFac= 1.00D+00 NAtFMM=   60 NAOKFM=T Big=T
 Integral buffers will be    131072 words long.
 Raffenetti 2 integral format.
 Two-electron integral symmetry is turned off.
 R6Disp:  Grimme-D3(BJ) Dispersion energy=       -0.4671167563 Hartrees.
 Nuclear repulsion after empirical dispersion term =    18677.0854255777 Hartrees.
 ------------------------------------------------------------------------------
 Polarizable Continuum Model (PCM)
 =================================
 Model                : PCM.
 Atomic radii         : SMD-Coulomb.
 Polarization charges : Total charges.
 Charge compensation  : None.
 Solution method      : On-the-fly selection.
 Cavity type          : VdW (van der Waals Surface) (Alpha=1.000).
 Cavity algorithm     : GePol (No added spheres)
                        Default sphere list used, NSphG=  146.
                        Lebedev-Laikov grids with approx.  5.0 points / Ang**2.
                        Smoothing algorithm: York/Karplus (Gamma=1.0000).
                        Polarization charges: spherical gaussians, with
                                              point-specific exponents (IZeta= 3).
                        Self-potential: point-specific (ISelfS= 7).
                        Self-field    : sphere-specific E.n sum rule (ISelfD= 2).
 Solvent              : PropylEthanoate, Eps=   5.520500 Eps(inf)=   1.916010
 ------------------------------------------------------------------------------
 GePol: Number of generator spheres                  =     146
 GePol: Total number of spheres                      =     146
 GePol: Number of exposed spheres                    =     145 ( 99.32%)
 GePol: Number of points                             =    9984
 GePol: Average weight of points                     =       0.11
 GePol: Minimum weight of points                     =   0.17D-10
 GePol: Maximum weight of points                     =    0.21501
 GePol: Number of points with low weight             =     699
 GePol: Fraction of low-weight points (<1% of avg)   =       7.00%
 GePol: Cavity surface area                          =   1084.060 Ang**2
 GePol: Cavity volume                                =   1263.320 Ang**3
 ------------------------------------------------------------------------------
 Atomic radii for non-electrostatic terms: SMD-CDS.
 ------------------------------------------------------------------------------
 PCM non-electrostatic energy =        -0.0311187084 Hartrees.
 Nuclear repulsion after PCM non-electrostatic terms =    18677.0543068693 Hartrees.
 Leave Link  301 at Sat Nov  9 14:51:28 2024, MaxMem=  8589934592 cpu:               2.4 elap:               0.1
 (Enter /ihome/crc/install/gaussian/c01/avx2/tar/g16/l302.exe)
 NPDir=0 NMtPBC=     1 NCelOv=     1 NCel=       1 NClECP=     1 NCelD=      1
         NCelK=      1 NCelE2=     1 NClLst=     1 CellRange=     0.0.
 One-electron integrals computed using PRISM.
   1 Symmetry operations used in ECPInt.
 ECPInt:  NShTT=  874503 NPrTT= 2505333 LenC2=  520916 LenP2D=  954399.
 LDataN:  DoStor=T MaxTD1= 7 Len=  274
 Number of processors reduced to  14 by ecpmxn.
 NBasis=  3564 RedAO= T EigKep=  2.60D-06  NBF=  3564
 NBsUse=  3564 1.00D-06 EigRej= -1.00D+00 NBFU=  3564
 Precomputing XC quadrature grid using
 IXCGrd= 4 IRadAn=           5 IRanWt=          -1 IRanGd=           0 AccXCQ= 0.00D+00.
 Defaulting to unpruned grid for atomic number  53.
 Generated NRdTot=       0 NPtTot=           0 NUsed=           0 NTot=          32
 NSgBfM=  3100  3058  3069  3087  3100 MxSgAt=   146 MxSgA2=   146.
 Leave Link  302 at Sat Nov  9 14:51:51 2024, MaxMem=  8589934592 cpu:             670.7 elap:              22.3
 (Enter /ihome/crc/install/gaussian/c01/avx2/tar/g16/l303.exe)
 DipDrv:  MaxL=1.
 Leave Link  303 at Sat Nov  9 14:51:53 2024, MaxMem=  8589934592 cpu:              22.6 elap:               1.0
 (Enter /ihome/crc/install/gaussian/c01/avx2/tar/g16/l401.exe)
 ExpMin= 7.49D-02 ExpMax= 6.07D+04 ExpMxC= 2.07D+03 IAcc=3 IRadAn=         5 AccDes= 0.00D+00
 Harris functional with IExCor=  402 and IRadAn=       5 diagonalized for initial guess.
 HarFok:  IExCor=  402 AccDes= 0.00D+00 IRadAn=         5 IDoV= 1 UseB2=F ITyADJ=14
 ICtDFT=  3500011 ScaDFX=  1.000000  1.000000  1.000000  1.000000
 Defaulting to unpruned grid for atomic number  53.
 FoFCou: FMM=F IPFlag=           0 FMFlag=      100000 FMFlg1=        2001
         NFxFlg=           0 DoJE=T BraDBF=F KetDBF=T FulRan=T
         wScrn=  0.000000 ICntrl=       500 IOpCl=  0 I1Cent=   200000004 NGrid=           0
         NMat0=    1 NMatS0=      1 NMatT0=    0 NMatD0=    1 NMtDS0=    0 NMtDT0=    0
 Symmetry not used in FoFCou.
 Harris En= -4852.92627901698    
 JPrj=0 DoOrth=F DoCkMO=F.
 Leave Link  401 at Sat Nov  9 14:52:14 2024, MaxMem=  8589934592 cpu:             664.9 elap:              20.9
 (Enter /ihome/crc/install/gaussian/c01/avx2/tar/g16/l502.exe)
 Two-electron integral symmetry not used.
 Closed shell SCF:
 Using DIIS extrapolation, IDIIS=  1040.
 NGot=  8589934592 LenX=  8556743982 LenY=  8540223822
 Requested convergence on RMS density matrix=1.00D-08 within 128 cycles.
 Requested convergence on MAX density matrix=1.00D-06.
 Requested convergence on             energy=1.00D-06.
 No special actions if energy rises.
 Fock matrices will be formed incrementally for  20 cycles.

 Cycle   1  Pass 1  IDiag  1:
 FoFJK:  IHMeth= 1 ICntrl=       0 DoSepK=F KAlg= 0 I1Cent=           0 FoldK=F
 IRaf= 540000000 NMat=       1 IRICut=       1 DoRegI=T DoRafI=F ISym2E= 0 IDoP0=0 IntGTp=1.
 FoFCou: FMM=T IPFlag=           0 FMFlag=      100000 FMFlg1=        2001
         NFxFlg=           0 DoJE=F BraDBF=F KetDBF=F FulRan=T
         wScrn=  0.000000 ICntrl=         0 IOpCl=  0 I1Cent=           0 NGrid=           0
         NMat0=    1 NMatS0=      1 NMatT0=    0 NMatD0=    1 NMtDS0=    0 NMtDT0=    0
 Symmetry not used in FoFCou.
 FMM levels:  10  Number of levels for PrismC:   9
 Defaulting to unpruned grid for atomic number  53.
 Defaulting to unpruned grid for atomic number  53.
 Defaulting to unpruned grid for atomic number  53.
 Defaulting to unpruned grid for atomic number  53.
 Defaulting to unpruned grid for atomic number  53.
 Defaulting to unpruned grid for atomic number  53.
 Defaulting to unpruned grid for atomic number  53.
 Defaulting to unpruned grid for atomic number  53.
 Defaulting to unpruned grid for atomic number  53.
 Defaulting to unpruned grid for atomic number  53.
 Defaulting to unpruned grid for atomic number  53.
 Defaulting to unpruned grid for atomic number  53.
 Defaulting to unpruned grid for atomic number  53.
 Defaulting to unpruned grid for atomic number  53.
 Defaulting to unpruned grid for atomic number  53.
 Defaulting to unpruned grid for atomic number  53.
 Defaulting to unpruned grid for atomic number  53.
 Defaulting to unpruned grid for atomic number  53.
 Defaulting to unpruned grid for atomic number  53.
 Defaulting to unpruned grid for atomic number  53.
 Defaulting to unpruned grid for atomic number  53.
 Defaulting to unpruned grid for atomic number  53.
 Defaulting to unpruned grid for atomic number  53.
 Defaulting to unpruned grid for atomic number  53.
 Defaulting to unpruned grid for atomic number  53.
 Defaulting to unpruned grid for atomic number  53.
 Defaulting to unpruned grid for atomic number  53.
 Defaulting to unpruned grid for atomic number  53.
 Defaulting to unpruned grid for atomic number  53.
 Defaulting to unpruned grid for atomic number  53.
 Defaulting to unpruned grid for atomic number  53.
 Defaulting to unpruned grid for atomic number  53.
 Inv3:  Mode=1 IEnd=   299040768.
 Iteration    1 A*A^-1 deviation from unit magnitude is 3.89D-15 for   7184.
 Iteration    1 A*A^-1 deviation from orthogonality  is 3.62D-15 for   6372   2170.
 Iteration    1 A^-1*A deviation from unit magnitude is 4.11D-15 for   7184.
 Iteration    1 A^-1*A deviation from orthogonality  is 1.70D-13 for   6649   6593.
 E= -4850.67966642875    
 DIIS: error= 1.06D-02 at cycle   1 NSaved=   1.
 NSaved= 1 IEnMin= 1 EnMin= -4850.67966642875     IErMin= 1 ErrMin= 1.06D-02
 ErrMax= 1.06D-02  0.00D+00 EMaxC= 1.00D-01 BMatC= 2.73D+00 BMatP= 2.73D+00
 IDIUse=3 WtCom= 8.94D-01 WtEn= 1.06D-01
 Coeff-Com:  0.100D+01
 Coeff-En:   0.100D+01
 Coeff:      0.100D+01
 Gap=     0.326 Goal=   None    Shift=    0.000
 GapD=    0.326 DampG=1.000 DampE=0.500 DampFc=0.5000 IDamp=-1.
 Damping current iteration by 5.00D-01
 RMSDP=2.73D-03 MaxDP=1.65D+00              OVMax= 2.41D-01

 Cycle   2  Pass 1  IDiag  1:
 RMSU=  1.35D-03    CP:  1.06D+00
 E= -4851.41128954831     Delta-E=       -0.731623119558 Rises=F Damp=T
 DIIS: error= 4.61D-03 at cycle   2 NSaved=   2.
 NSaved= 2 IEnMin= 2 EnMin= -4851.41128954831     IErMin= 2 ErrMin= 4.61D-03
 ErrMax= 4.61D-03  0.00D+00 EMaxC= 1.00D-01 BMatC= 3.45D-01 BMatP= 2.73D+00
 IDIUse=3 WtCom= 9.54D-01 WtEn= 4.61D-02
 Coeff-Com:  0.161D+00 0.839D+00
 Coeff-En:   0.280D+00 0.720D+00
 Coeff:      0.167D+00 0.833D+00
 Gap=     0.183 Goal=   None    Shift=    0.000
 RMSDP=8.84D-04 MaxDP=4.33D-01 DE=-7.32D-01 OVMax= 2.14D-01

 Cycle   3  Pass 1  IDiag  1:
 RMSU=  6.63D-04    CP:  1.02D+00  5.75D-01
 E= -4852.56348342328     Delta-E=       -1.152193874968 Rises=F Damp=F
 DIIS: error= 5.78D-03 at cycle   3 NSaved=   3.
 NSaved= 3 IEnMin= 3 EnMin= -4852.56348342328     IErMin= 2 ErrMin= 4.61D-03
 ErrMax= 5.78D-03  0.00D+00 EMaxC= 1.00D-01 BMatC= 4.00D-01 BMatP= 3.45D-01
 IDIUse=3 WtCom= 1.16D-01 WtEn= 8.84D-01
 Coeff-Com:  0.112D-01 0.519D+00 0.470D+00
 Coeff-En:   0.000D+00 0.000D+00 0.100D+01
 Coeff:      0.131D-02 0.603D-01 0.938D+00
 Gap=     0.195 Goal=   None    Shift=    0.000
 RMSDP=1.12D-03 MaxDP=6.45D-01 DE=-1.15D+00 OVMax= 1.90D-01

 Cycle   4  Pass 1  IDiag  1:
 RMSU=  6.92D-04    CP:  1.02D+00  7.64D-01 -2.80D-01
 E= -4851.36458222333     Delta-E=        1.198901199947 Rises=F Damp=F
 DIIS: error= 1.38D-02 at cycle   4 NSaved=   4.
 NSaved= 4 IEnMin= 3 EnMin= -4852.56348342328     IErMin= 2 ErrMin= 4.61D-03
 ErrMax= 1.38D-02  0.00D+00 EMaxC= 1.00D-01 BMatC= 1.92D+00 BMatP= 3.45D-01
 IDIUse=2 WtCom= 0.00D+00 WtEn= 1.00D+00
 Coeff-En:   0.000D+00 0.000D+00 0.762D+00 0.238D+00
 Coeff:      0.000D+00 0.000D+00 0.762D+00 0.238D+00
 Gap=     0.175 Goal=   None    Shift=    0.000
 RMSDP=6.57D-04 MaxDP=6.20D-01 DE= 1.20D+00 OVMax= 1.45D-01

 Cycle   5  Pass 1  IDiag  1:
 RMSU=  1.91D-04    CP:  1.01D+00  5.58D-01  3.07D-01  4.14D-01
 E= -4852.81342683226     Delta-E=       -1.448844608927 Rises=F Damp=F
 DIIS: error= 3.12D-03 at cycle   5 NSaved=   5.
 NSaved= 5 IEnMin= 5 EnMin= -4852.81342683226     IErMin= 5 ErrMin= 3.12D-03
 ErrMax= 3.12D-03  0.00D+00 EMaxC= 1.00D-01 BMatC= 1.09D-01 BMatP= 3.45D-01
 IDIUse=3 WtCom= 9.69D-01 WtEn= 3.12D-02
 Coeff-Com:  0.133D-02 0.841D-02 0.300D+00-0.410D-01 0.732D+00
 Coeff-En:   0.000D+00 0.000D+00 0.259D+00 0.000D+00 0.741D+00
 Coeff:      0.129D-02 0.815D-02 0.298D+00-0.397D-01 0.732D+00
 Gap=     0.105 Goal=   None    Shift=    0.000
 RMSDP=1.74D-04 MaxDP=6.49D-02 DE=-1.45D+00 OVMax= 3.72D-02

 Cycle   6  Pass 1  IDiag  1:
 RMSU=  4.81D-05    CP:  1.01D+00  5.37D-01  5.06D-01  2.75D-01  8.73D-01
 E= -4852.90073365555     Delta-E=       -0.087306823287 Rises=F Damp=F
 DIIS: error= 4.04D-04 at cycle   6 NSaved=   6.
 NSaved= 6 IEnMin= 6 EnMin= -4852.90073365555     IErMin= 6 ErrMin= 4.04D-04
 ErrMax= 4.04D-04  0.00D+00 EMaxC= 1.00D-01 BMatC= 2.77D-03 BMatP= 1.09D-01
 IDIUse=3 WtCom= 9.96D-01 WtEn= 4.04D-03
 Coeff-Com: -0.212D-02 0.475D-02 0.147D+00-0.541D-01 0.493D+00 0.411D+00
 Coeff-En:   0.000D+00 0.000D+00 0.000D+00 0.000D+00 0.000D+00 0.100D+01
 Coeff:     -0.211D-02 0.473D-02 0.147D+00-0.539D-01 0.491D+00 0.413D+00
 Gap=     0.105 Goal=   None    Shift=    0.000
 RMSDP=3.25D-05 MaxDP=1.39D-02 DE=-8.73D-02 OVMax= 1.20D-02

 Cycle   7  Pass 1  IDiag  1:
 RMSU=  1.72D-05    CP:  1.01D+00  5.47D-01  5.19D-01  2.62D-01  8.93D-01
                    CP:  5.70D-01
 E= -4852.90329308884     Delta-E=       -0.002559433287 Rises=F Damp=F
 DIIS: error= 1.31D-04 at cycle   7 NSaved=   7.
 NSaved= 7 IEnMin= 7 EnMin= -4852.90329308884     IErMin= 7 ErrMin= 1.31D-04
 ErrMax= 1.31D-04  0.00D+00 EMaxC= 1.00D-01 BMatC= 1.44D-04 BMatP= 2.77D-03
 IDIUse=3 WtCom= 9.99D-01 WtEn= 1.31D-03
 Coeff-Com: -0.134D-02 0.340D-02 0.676D-01-0.311D-01 0.243D+00 0.245D+00
 Coeff-Com:  0.474D+00
 Coeff-En:   0.000D+00 0.000D+00 0.000D+00 0.000D+00 0.000D+00 0.000D+00
 Coeff-En:   0.100D+01
 Coeff:     -0.134D-02 0.339D-02 0.675D-01-0.310D-01 0.243D+00 0.244D+00
 Coeff:      0.474D+00
 Gap=     0.106 Goal=   None    Shift=    0.000
 RMSDP=6.04D-06 MaxDP=1.52D-03 DE=-2.56D-03 OVMax= 2.19D-03

 Cycle   8  Pass 1  IDiag  1:
 RMSU=  4.94D-06    CP:  1.01D+00  5.46D-01  5.19D-01  2.64D-01  8.93D-01
                    CP:  5.69D-01  8.25D-01
 E= -4852.90340473129     Delta-E=       -0.000111642450 Rises=F Damp=F
 DIIS: error= 2.92D-05 at cycle   8 NSaved=   8.
 NSaved= 8 IEnMin= 8 EnMin= -4852.90340473129     IErMin= 8 ErrMin= 2.92D-05
 ErrMax= 2.92D-05  0.00D+00 EMaxC= 1.00D-01 BMatC= 1.58D-05 BMatP= 1.44D-04
 IDIUse=1 WtCom= 1.00D+00 WtEn= 0.00D+00
 Coeff-Com: -0.230D-03 0.495D-03 0.157D-01-0.840D-02 0.573D-01 0.704D-01
 Coeff-Com:  0.271D+00 0.594D+00
 Coeff:     -0.230D-03 0.495D-03 0.157D-01-0.840D-02 0.573D-01 0.704D-01
 Coeff:      0.271D+00 0.594D+00
 Gap=     0.106 Goal=   None    Shift=    0.000
 RMSDP=2.11D-06 MaxDP=6.69D-04 DE=-1.12D-04 OVMax= 6.79D-04

 Cycle   9  Pass 1  IDiag  1:
 RMSU=  1.51D-06    CP:  1.01D+00  5.46D-01  5.20D-01  2.63D-01  8.92D-01
                    CP:  5.65D-01  8.45D-01  8.30D-01
 E= -4852.90341696629     Delta-E=       -0.000012235003 Rises=F Damp=F
 DIIS: error= 1.20D-05 at cycle   9 NSaved=   9.
 NSaved= 9 IEnMin= 9 EnMin= -4852.90341696629     IErMin= 9 ErrMin= 1.20D-05
 ErrMax= 1.20D-05  0.00D+00 EMaxC= 1.00D-01 BMatC= 2.38D-06 BMatP= 1.58D-05
 IDIUse=1 WtCom= 1.00D+00 WtEn= 0.00D+00
 Coeff-Com:  0.437D-04-0.264D-03 0.205D-02-0.134D-02 0.658D-02 0.143D-01
 Coeff-Com:  0.105D+00 0.360D+00 0.513D+00
 Coeff:      0.437D-04-0.264D-03 0.205D-02-0.134D-02 0.658D-02 0.143D-01
 Coeff:      0.105D+00 0.360D+00 0.513D+00
 Gap=     0.105 Goal=   None    Shift=    0.000
 RMSDP=8.90D-07 MaxDP=2.68D-04 DE=-1.22D-05 OVMax= 2.36D-04

 Cycle  10  Pass 1  IDiag  1:
 RMSU=  6.75D-07    CP:  1.01D+00  5.45D-01  5.20D-01  2.63D-01  8.93D-01
                    CP:  5.71D-01  8.48D-01  8.22D-01  7.11D-01
 E= -4852.90341898710     Delta-E=       -0.000002020810 Rises=F Damp=F
 DIIS: error= 2.90D-06 at cycle  10 NSaved=  10.
 NSaved=10 IEnMin=10 EnMin= -4852.90341898710     IErMin=10 ErrMin= 2.90D-06
 ErrMax= 2.90D-06  0.00D+00 EMaxC= 1.00D-01 BMatC= 2.21D-07 BMatP= 2.38D-06
 IDIUse=1 WtCom= 1.00D+00 WtEn= 0.00D+00
 Coeff-Com:  0.378D-04-0.195D-03-0.195D-03-0.444D-04-0.111D-02 0.213D-02
 Coeff-Com:  0.343D-01 0.149D+00 0.299D+00 0.518D+00
 Coeff:      0.378D-04-0.195D-03-0.195D-03-0.444D-04-0.111D-02 0.213D-02
 Coeff:      0.343D-01 0.149D+00 0.299D+00 0.518D+00
 Gap=     0.106 Goal=   None    Shift=    0.000
 RMSDP=3.37D-07 MaxDP=1.69D-04 DE=-2.02D-06 OVMax= 7.72D-05

 Cycle  11  Pass 1  IDiag  1:
 RMSU=  1.93D-07    CP:  1.01D+00  5.45D-01  5.21D-01  2.63D-01  8.92D-01
                    CP:  5.71D-01  8.51D-01  8.39D-01  7.50D-01  7.06D-01
 E= -4852.90341916603     Delta-E=       -0.000000178934 Rises=F Damp=F
 DIIS: error= 1.38D-06 at cycle  11 NSaved=  11.
 NSaved=11 IEnMin=11 EnMin= -4852.90341916603     IErMin=11 ErrMin= 1.38D-06
 ErrMax= 1.38D-06  0.00D+00 EMaxC= 1.00D-01 BMatC= 3.07D-08 BMatP= 2.21D-07
 IDIUse=1 WtCom= 1.00D+00 WtEn= 0.00D+00
 Coeff-Com:  0.132D-04-0.700D-04-0.397D-03 0.116D-03-0.146D-02-0.254D-03
 Coeff-Com:  0.854D-02 0.497D-01 0.123D+00 0.314D+00 0.507D+00
 Coeff:      0.132D-04-0.700D-04-0.397D-03 0.116D-03-0.146D-02-0.254D-03
 Coeff:      0.854D-02 0.497D-01 0.123D+00 0.314D+00 0.507D+00
 Gap=     0.106 Goal=   None    Shift=    0.000
 RMSDP=1.29D-07 MaxDP=4.46D-05 DE=-1.79D-07 OVMax= 4.07D-05

 Cycle  12  Pass 1  IDiag  1:
 RMSU=  8.70D-08    CP:  1.01D+00  5.45D-01  5.21D-01  2.63D-01  8.92D-01
                    CP:  5.71D-01  8.55D-01  8.41D-01  7.36D-01  7.79D-01
                    CP:  7.91D-01
 E= -4852.90341918960     Delta-E=       -0.000000023567 Rises=F Damp=F
 DIIS: error= 6.15D-07 at cycle  12 NSaved=  12.
 NSaved=12 IEnMin=12 EnMin= -4852.90341918960     IErMin=12 ErrMin= 6.15D-07
 ErrMax= 6.15D-07  0.00D+00 EMaxC= 1.00D-01 BMatC= 4.52D-09 BMatP= 3.07D-08
 IDIUse=1 WtCom= 1.00D+00 WtEn= 0.00D+00
 Coeff-Com:  0.130D-05-0.986D-05-0.269D-03 0.969D-04-0.882D-03-0.536D-03
 Coeff-Com: -0.102D-03 0.863D-02 0.297D-01 0.111D+00 0.303D+00 0.549D+00
 Coeff:      0.130D-05-0.986D-05-0.269D-03 0.969D-04-0.882D-03-0.536D-03
 Coeff:     -0.102D-03 0.863D-02 0.297D-01 0.111D+00 0.303D+00 0.549D+00
 Gap=     0.106 Goal=   None    Shift=    0.000
 RMSDP=6.86D-08 MaxDP=3.30D-05 DE=-2.36D-08 OVMax= 1.90D-05

 Cycle  13  Pass 1  IDiag  1:
 RMSU=  3.07D-08    CP:  1.01D+00  5.45D-01  5.21D-01  2.63D-01  8.92D-01
                    CP:  5.71D-01  8.53D-01  8.40D-01  7.43D-01  7.77D-01
                    CP:  8.49D-01  6.82D-01
 E= -4852.90341919381     Delta-E=       -0.000000004209 Rises=F Damp=F
 DIIS: error= 2.74D-07 at cycle  13 NSaved=  13.
 NSaved=13 IEnMin=13 EnMin= -4852.90341919381     IErMin=13 ErrMin= 2.74D-07
 ErrMax= 2.74D-07  0.00D+00 EMaxC= 1.00D-01 BMatC= 7.14D-10 BMatP= 4.52D-09
 IDIUse=1 WtCom= 1.00D+00 WtEn= 0.00D+00
 Coeff-Com: -0.270D-05 0.764D-05-0.861D-04 0.318D-04-0.233D-03-0.201D-03
 Coeff-Com: -0.143D-02-0.299D-02-0.360D-02 0.125D-01 0.965D-01 0.333D+00
 Coeff-Com:  0.566D+00
 Coeff:     -0.270D-05 0.764D-05-0.861D-04 0.318D-04-0.233D-03-0.201D-03
 Coeff:     -0.143D-02-0.299D-02-0.360D-02 0.125D-01 0.965D-01 0.333D+00
 Coeff:      0.566D+00
 Gap=     0.106 Goal=   None    Shift=    0.000
 RMSDP=1.94D-08 MaxDP=8.85D-06 DE=-4.21D-09 OVMax= 6.95D-06

 Cycle  14  Pass 1  IDiag  1:
 RMSU=  9.36D-09    CP:  1.01D+00  5.45D-01  5.21D-01  2.63D-01  8.92D-01
                    CP:  5.71D-01  8.54D-01  8.41D-01  7.43D-01  7.82D-01
                    CP:  8.56D-01  7.69D-01  8.36D-01
 E= -4852.90341919479     Delta-E=       -0.000000000982 Rises=F Damp=F
 DIIS: error= 7.92D-08 at cycle  14 NSaved=  14.
 NSaved=14 IEnMin=14 EnMin= -4852.90341919479     IErMin=14 ErrMin= 7.92D-08
 ErrMax= 7.92D-08  0.00D+00 EMaxC= 1.00D-01 BMatC= 7.41D-11 BMatP= 7.14D-10
 IDIUse=1 WtCom= 1.00D+00 WtEn= 0.00D+00
 Coeff-Com: -0.175D-05 0.575D-05-0.182D-04 0.617D-05-0.288D-04-0.408D-04
 Coeff-Com: -0.757D-03-0.260D-02-0.571D-02-0.653D-02 0.169D-01 0.118D+00
 Coeff-Com:  0.323D+00 0.558D+00
 Coeff:     -0.175D-05 0.575D-05-0.182D-04 0.617D-05-0.288D-04-0.408D-04
 Coeff:     -0.757D-03-0.260D-02-0.571D-02-0.653D-02 0.169D-01 0.118D+00
 Coeff:      0.323D+00 0.558D+00
 Gap=     0.106 Goal=   None    Shift=    0.000
 RMSDP=8.81D-09 MaxDP=4.87D-06 DE=-9.82D-10 OVMax= 1.79D-06

 Cycle  15  Pass 1  IDiag  1:
 RMSU=  4.48D-09    CP:  1.01D+00  5.45D-01  5.21D-01  2.63D-01  8.92D-01
                    CP:  5.71D-01  8.54D-01  8.41D-01  7.44D-01  7.82D-01
                    CP:  8.70D-01  7.84D-01  8.05D-01  8.97D-01
 E= -4852.90341919476     Delta-E=        0.000000000033 Rises=F Damp=F
 DIIS: error= 2.07D-08 at cycle  15 NSaved=  15.
 NSaved=15 IEnMin=14 EnMin= -4852.90341919479     IErMin=15 ErrMin= 2.07D-08
 ErrMax= 2.07D-08  0.00D+00 EMaxC= 1.00D-01 BMatC= 9.18D-12 BMatP= 7.41D-11
 IDIUse=1 WtCom= 1.00D+00 WtEn= 0.00D+00
 Coeff-Com: -0.443D-06 0.158D-05 0.255D-05-0.950D-06 0.160D-04 0.796D-05
 Coeff-Com: -0.177D-03-0.883D-03-0.252D-02-0.524D-02-0.579D-02 0.100D-01
 Coeff-Com:  0.907D-01 0.307D+00 0.607D+00
 Coeff:     -0.443D-06 0.158D-05 0.255D-05-0.950D-06 0.160D-04 0.796D-05
 Coeff:     -0.177D-03-0.883D-03-0.252D-02-0.524D-02-0.579D-02 0.100D-01
 Coeff:      0.907D-01 0.307D+00 0.607D+00
 Gap=     0.106 Goal=   None    Shift=    0.000
 RMSDP=3.23D-09 MaxDP=1.17D-06 DE= 3.27D-11 OVMax= 9.97D-07

 Cycle  16  Pass 1  IDiag  1:
 RMSU=  1.35D-09    CP:  1.01D+00  5.45D-01  5.21D-01  2.63D-01  8.92D-01
                    CP:  5.71D-01  8.54D-01  8.41D-01  7.43D-01  7.83D-01
                    CP:  8.70D-01  7.85D-01  8.47D-01  9.31D-01  7.86D-01
 E= -4852.90341919503     Delta-E=       -0.000000000273 Rises=F Damp=F
 DIIS: error= 9.79D-09 at cycle  16 NSaved=  16.
 NSaved=16 IEnMin=16 EnMin= -4852.90341919503     IErMin=16 ErrMin= 9.79D-09
 ErrMax= 9.79D-09  0.00D+00 EMaxC= 1.00D-01 BMatC= 1.60D-12 BMatP= 9.18D-12
 IDIUse=1 WtCom= 1.00D+00 WtEn= 0.00D+00
 Coeff-Com: -0.490D-07 0.258D-06 0.374D-05-0.127D-05 0.131D-04 0.946D-05
 Coeff-Com: -0.241D-04-0.244D-03-0.874D-03-0.233D-02-0.510D-02-0.720D-02
 Coeff-Com:  0.204D-01 0.121D+00 0.359D+00 0.516D+00
 Coeff:     -0.490D-07 0.258D-06 0.374D-05-0.127D-05 0.131D-04 0.946D-05
 Coeff:     -0.241D-04-0.244D-03-0.874D-03-0.233D-02-0.510D-02-0.720D-02
 Coeff:      0.204D-01 0.121D+00 0.359D+00 0.516D+00
 Gap=     0.106 Goal=   None    Shift=    0.000
 RMSDP=6.52D-10 MaxDP=1.27D-07 DE=-2.73D-10 OVMax= 2.33D-07

 Error on total polarization charges =  0.08870
 SCF Done:  E(RB3LYP) =  -4852.90341920     A.U. after   16 cycles
            NFock= 16  Conv=0.65D-09     -V/T= 2.0441
 KE= 4.647809582957D+03 PE=-4.864622863827D+04 EE= 2.046846132925D+04
 SMD-CDS (non-electrostatic) energy       (kcal/mol) =     -19.53
 (included in total energy above)
 Leave Link  502 at Sat Nov  9 16:02:49 2024, MaxMem=  8589934592 cpu:          134846.2 elap:            4234.5
 (Enter /ihome/crc/install/gaussian/c01/avx2/tar/g16/l601.exe)
 Copying SCF densities to generalized density rwf, IOpCl= 0 IROHF=0.
 Hyperfine terms turned off by default for NAtoms > 100.

 **********************************************************************

            Population analysis using the SCF Density.

 **********************************************************************

 Alpha  occ. eigenvalues --  -89.02605 -89.02396 -24.69731 -24.69457 -19.15269
 Alpha  occ. eigenvalues --  -19.13804 -19.12522 -19.10541 -19.09226 -19.08871
 Alpha  occ. eigenvalues --  -19.08849 -19.08620 -14.38459 -14.33602 -14.32240
 Alpha  occ. eigenvalues --  -14.32003 -14.31381 -14.27779 -10.28961 -10.28245
 Alpha  occ. eigenvalues --  -10.27310 -10.26715 -10.26451 -10.25819 -10.25266
 Alpha  occ. eigenvalues --  -10.22567 -10.22528 -10.22102 -10.21843 -10.21490
 Alpha  occ. eigenvalues --  -10.21073 -10.20779 -10.20772 -10.20743 -10.20197
 Alpha  occ. eigenvalues --  -10.20137 -10.20063 -10.19917 -10.19889 -10.19760
 Alpha  occ. eigenvalues --  -10.19671 -10.19611 -10.19360 -10.19287 -10.19088
 Alpha  occ. eigenvalues --  -10.19006 -10.18986 -10.18967 -10.18805 -10.18799
 Alpha  occ. eigenvalues --  -10.18778 -10.18766 -10.18743 -10.18538 -10.18398
 Alpha  occ. eigenvalues --  -10.18281 -10.18153 -10.18125 -10.18068 -10.17829
 Alpha  occ. eigenvalues --  -10.17825 -10.17763 -10.17755 -10.17719 -10.17717
 Alpha  occ. eigenvalues --  -10.17705 -10.17672 -10.17665 -10.17639 -10.17621
 Alpha  occ. eigenvalues --  -10.17594 -10.17575 -10.17531 -10.17503 -10.17481
 Alpha  occ. eigenvalues --  -10.17438 -10.17412 -10.17355 -10.17280 -10.17166
 Alpha  occ. eigenvalues --  -10.17054 -10.16901 -10.16761 -10.16657 -10.16116
 Alpha  occ. eigenvalues --  -10.15346  -8.07152  -8.06947  -6.83219  -6.03457
 Alpha  occ. eigenvalues --   -6.03397  -6.03358  -6.03263  -6.03186  -6.03146
 Alpha  occ. eigenvalues --   -4.85927  -4.84367  -4.84324  -1.90649  -1.90214
 Alpha  occ. eigenvalues --   -1.90176  -1.88864  -1.88863  -1.23825  -1.23739
 Alpha  occ. eigenvalues --   -1.10745  -1.09198  -1.08567  -1.05887  -1.04814
 Alpha  occ. eigenvalues --   -1.04258  -1.00947  -0.98409  -0.98353  -0.98270
 Alpha  occ. eigenvalues --   -0.94802  -0.93644  -0.92604  -0.89594  -0.88312
 Alpha  occ. eigenvalues --   -0.87870  -0.87727  -0.87289  -0.85444  -0.85035
 Alpha  occ. eigenvalues --   -0.83603  -0.83266  -0.82441  -0.81794  -0.80506
 Alpha  occ. eigenvalues --   -0.79595  -0.79546  -0.78854  -0.78391  -0.78023
 Alpha  occ. eigenvalues --   -0.78004  -0.77159  -0.76373  -0.75761  -0.75039
 Alpha  occ. eigenvalues --   -0.74878  -0.74814  -0.74428  -0.74125  -0.73313
 Alpha  occ. eigenvalues --   -0.73267  -0.72912  -0.72586  -0.71694  -0.70947
 Alpha  occ. eigenvalues --   -0.70728  -0.69249  -0.69041  -0.68086  -0.67267
 Alpha  occ. eigenvalues --   -0.66884  -0.66076  -0.65290  -0.64606  -0.64487
 Alpha  occ. eigenvalues --   -0.63921  -0.63550  -0.62708  -0.62589  -0.62314
 Alpha  occ. eigenvalues --   -0.61946  -0.60916  -0.60884  -0.60674  -0.60544
 Alpha  occ. eigenvalues --   -0.60457  -0.59726  -0.59680  -0.58849  -0.58574
 Alpha  occ. eigenvalues --   -0.58264  -0.57457  -0.57427  -0.56265  -0.56005
 Alpha  occ. eigenvalues --   -0.55011  -0.54540  -0.53929  -0.53880  -0.52868
 Alpha  occ. eigenvalues --   -0.52575  -0.52399  -0.51717  -0.51594  -0.51309
 Alpha  occ. eigenvalues --   -0.50968  -0.50759  -0.50467  -0.50137  -0.49987
 Alpha  occ. eigenvalues --   -0.49899  -0.49781  -0.49646  -0.49247  -0.49175
 Alpha  occ. eigenvalues --   -0.48973  -0.48843  -0.48674  -0.48319  -0.48072
 Alpha  occ. eigenvalues --   -0.47810  -0.47470  -0.47325  -0.47011  -0.46692
 Alpha  occ. eigenvalues --   -0.46382  -0.46268  -0.46152  -0.46042  -0.45860
 Alpha  occ. eigenvalues --   -0.45740  -0.45436  -0.45376  -0.45255  -0.44994
 Alpha  occ. eigenvalues --   -0.44959  -0.44737  -0.44652  -0.44304  -0.44283
 Alpha  occ. eigenvalues --   -0.43889  -0.43434  -0.43341  -0.43033  -0.42971
 Alpha  occ. eigenvalues --   -0.42747  -0.42603  -0.42541  -0.42280  -0.42192
 Alpha  occ. eigenvalues --   -0.42123  -0.41985  -0.41636  -0.41370  -0.41315
 Alpha  occ. eigenvalues --   -0.41183  -0.41064  -0.40920  -0.40737  -0.40683
 Alpha  occ. eigenvalues --   -0.40468  -0.40419  -0.39911  -0.39795  -0.39603
 Alpha  occ. eigenvalues --   -0.39511  -0.39330  -0.39067  -0.38954  -0.38764
 Alpha  occ. eigenvalues --   -0.38517  -0.38081  -0.37928  -0.37784  -0.37705
 Alpha  occ. eigenvalues --   -0.37634  -0.37448  -0.37217  -0.37152  -0.36811
 Alpha  occ. eigenvalues --   -0.36746  -0.36697  -0.36560  -0.36423  -0.36048
 Alpha  occ. eigenvalues --   -0.35915  -0.35765  -0.35462  -0.35213  -0.35129
 Alpha  occ. eigenvalues --   -0.35021  -0.34674  -0.34592  -0.34438  -0.34280
 Alpha  occ. eigenvalues --   -0.34068  -0.34043  -0.33767  -0.33648  -0.33068
 Alpha  occ. eigenvalues --   -0.32920  -0.32767  -0.32289  -0.32227  -0.32034
 Alpha  occ. eigenvalues --   -0.31498  -0.30770  -0.30289  -0.30039  -0.29858
 Alpha  occ. eigenvalues --   -0.29457  -0.29349  -0.29222  -0.28745  -0.28512
 Alpha  occ. eigenvalues --   -0.28331  -0.27964  -0.27883  -0.27872  -0.27750
 Alpha  occ. eigenvalues --   -0.26719  -0.26659  -0.26589  -0.26180  -0.25771
 Alpha  occ. eigenvalues --   -0.25572  -0.25459  -0.25243  -0.25167  -0.24992
 Alpha  occ. eigenvalues --   -0.24654  -0.24439  -0.23971  -0.23691  -0.23558
 Alpha  occ. eigenvalues --   -0.23447  -0.22339  -0.21742  -0.20296
 Alpha virt. eigenvalues --   -0.09746  -0.05998  -0.05254  -0.04902  -0.04565
 Alpha virt. eigenvalues --   -0.03688  -0.03039  -0.02890  -0.02542  -0.02018
 Alpha virt. eigenvalues --   -0.01817  -0.01546  -0.01258  -0.00370   0.00131
 Alpha virt. eigenvalues --    0.00326   0.00697   0.00777   0.01020   0.01963
 Alpha virt. eigenvalues --    0.03086   0.03684   0.04219   0.04400   0.04944
 Alpha virt. eigenvalues --    0.05059   0.05324   0.05599   0.05709   0.05851
 Alpha virt. eigenvalues --    0.06119   0.06196   0.06578   0.06804   0.06951
 Alpha virt. eigenvalues --    0.07023   0.07213   0.07302   0.07396   0.07576
 Alpha virt. eigenvalues --    0.07795   0.07854   0.08105   0.08378   0.08493
 Alpha virt. eigenvalues --    0.08772   0.08871   0.09098   0.09180   0.09234
 Alpha virt. eigenvalues --    0.09519   0.09649   0.09879   0.09937   0.10059
 Alpha virt. eigenvalues --    0.10208   0.10317   0.10368   0.10519   0.10646
 Alpha virt. eigenvalues --    0.10694   0.10857   0.10923   0.11200   0.11248
 Alpha virt. eigenvalues --    0.11448   0.11609   0.11648   0.11900   0.12014
 Alpha virt. eigenvalues --    0.12148   0.12208   0.12341   0.12691   0.12769
 Alpha virt. eigenvalues --    0.12874   0.12956   0.13090   0.13254   0.13325
 Alpha virt. eigenvalues --    0.13526   0.13782   0.13885   0.13938   0.13990
 Alpha virt. eigenvalues --    0.14132   0.14243   0.14581   0.14590   0.14603
 Alpha virt. eigenvalues --    0.14844   0.14926   0.15085   0.15140   0.15293
 Alpha virt. eigenvalues --    0.15609   0.15726   0.15913   0.16017   0.16202
 Alpha virt. eigenvalues --    0.16317   0.16397   0.16601   0.16659   0.16834
 Alpha virt. eigenvalues --    0.17006   0.17275   0.17378   0.17440   0.17632
 Alpha virt. eigenvalues --    0.17815   0.17898   0.17992   0.18058   0.18259
 Alpha virt. eigenvalues --    0.18362   0.18508   0.18861   0.18980   0.19162
 Alpha virt. eigenvalues --    0.19221   0.19417   0.19536   0.19640   0.19676
 Alpha virt. eigenvalues --    0.19944   0.20061   0.20079   0.20177   0.20274
 Alpha virt. eigenvalues --    0.20527   0.20818   0.20868   0.20970   0.21060
 Alpha virt. eigenvalues --    0.21132   0.21232   0.21360   0.21475   0.21689
 Alpha virt. eigenvalues --    0.21881   0.22028   0.22097   0.22285   0.22400
 Alpha virt. eigenvalues --    0.22454   0.22550   0.22638   0.22784   0.22915
 Alpha virt. eigenvalues --    0.22986   0.23193   0.23273   0.23482   0.23525
 Alpha virt. eigenvalues --    0.23831   0.24023   0.24112   0.24196   0.24272
 Alpha virt. eigenvalues --    0.24317   0.24491   0.24756   0.24822   0.25011
 Alpha virt. eigenvalues --    0.25110   0.25280   0.25527   0.25572   0.25689
 Alpha virt. eigenvalues --    0.25968   0.26109   0.26221   0.26326   0.26477
 Alpha virt. eigenvalues --    0.26671   0.26857   0.26984   0.27054   0.27206
 Alpha virt. eigenvalues --    0.27400   0.27618   0.27682   0.27724   0.27920
 Alpha virt. eigenvalues --    0.27996   0.28067   0.28254   0.28431   0.28515
 Alpha virt. eigenvalues --    0.28734   0.28883   0.28984   0.29072   0.29211
 Alpha virt. eigenvalues --    0.29369   0.29397   0.29639   0.29770   0.29916
 Alpha virt. eigenvalues --    0.30016   0.30069   0.30230   0.30461   0.30537
 Alpha virt. eigenvalues --    0.30660   0.30748   0.30840   0.31052   0.31177
 Alpha virt. eigenvalues --    0.31262   0.31360   0.31463   0.31570   0.31669
 Alpha virt. eigenvalues --    0.31886   0.31932   0.32085   0.32157   0.32306
 Alpha virt. eigenvalues --    0.32491   0.32602   0.32698   0.32818   0.32902
 Alpha virt. eigenvalues --    0.33148   0.33314   0.33379   0.33538   0.33632
 Alpha virt. eigenvalues --    0.33661   0.33904   0.34085   0.34196   0.34273
 Alpha virt. eigenvalues --    0.34392   0.34497   0.34555   0.34708   0.34852
 Alpha virt. eigenvalues --    0.35010   0.35112   0.35197   0.35288   0.35420
 Alpha virt. eigenvalues --    0.35745   0.35822   0.36020   0.36229   0.36284
 Alpha virt. eigenvalues --    0.36324   0.36481   0.36541   0.36651   0.36787
 Alpha virt. eigenvalues --    0.36875   0.37005   0.37162   0.37276   0.37370
 Alpha virt. eigenvalues --    0.37435   0.37563   0.37639   0.37699   0.37843
 Alpha virt. eigenvalues --    0.37874   0.38073   0.38269   0.38304   0.38545
 Alpha virt. eigenvalues --    0.38617   0.38668   0.38903   0.38999   0.39078
 Alpha virt. eigenvalues --    0.39350   0.39422   0.39538   0.39672   0.39689
 Alpha virt. eigenvalues --    0.39828   0.39904   0.39979   0.40172   0.40238
 Alpha virt. eigenvalues --    0.40325   0.40436   0.40488   0.40539   0.40656
 Alpha virt. eigenvalues --    0.40951   0.41022   0.41129   0.41248   0.41302
 Alpha virt. eigenvalues --    0.41457   0.41666   0.41764   0.41871   0.41920
 Alpha virt. eigenvalues --    0.42061   0.42204   0.42376   0.42457   0.42521
 Alpha virt. eigenvalues --    0.42576   0.42719   0.42774   0.42919   0.42968
 Alpha virt. eigenvalues --    0.43039   0.43096   0.43257   0.43457   0.43604
 Alpha virt. eigenvalues --    0.43624   0.43740   0.43813   0.43883   0.43965
 Alpha virt. eigenvalues --    0.44178   0.44316   0.44364   0.44504   0.44736
 Alpha virt. eigenvalues --    0.44784   0.44831   0.44943   0.45104   0.45254
 Alpha virt. eigenvalues --    0.45363   0.45394   0.45537   0.45762   0.45868
 Alpha virt. eigenvalues --    0.45959   0.46038   0.46131   0.46217   0.46389
 Alpha virt. eigenvalues --    0.46485   0.46515   0.46525   0.46734   0.46817
 Alpha virt. eigenvalues --    0.46897   0.47189   0.47234   0.47360   0.47410
 Alpha virt. eigenvalues --    0.47580   0.47727   0.47814   0.48023   0.48119
 Alpha virt. eigenvalues --    0.48226   0.48308   0.48357   0.48564   0.48658
 Alpha virt. eigenvalues --    0.48725   0.49081   0.49224   0.49287   0.49355
 Alpha virt. eigenvalues --    0.49575   0.49650   0.49780   0.49923   0.49934
 Alpha virt. eigenvalues --    0.50128   0.50166   0.50399   0.50530   0.50593
 Alpha virt. eigenvalues --    0.50826   0.50961   0.51078   0.51291   0.51369
 Alpha virt. eigenvalues --    0.51521   0.51582   0.51644   0.51832   0.51862
 Alpha virt. eigenvalues --    0.52025   0.52062   0.52263   0.52462   0.52736
 Alpha virt. eigenvalues --    0.52827   0.52983   0.53042   0.53208   0.53362
 Alpha virt. eigenvalues --    0.53502   0.53649   0.53724   0.53921   0.54060
 Alpha virt. eigenvalues --    0.54252   0.54351   0.54380   0.54489   0.54850
 Alpha virt. eigenvalues --    0.54915   0.55047   0.55224   0.55402   0.55563
 Alpha virt. eigenvalues --    0.55590   0.55966   0.55996   0.56217   0.56381
 Alpha virt. eigenvalues --    0.56550   0.56596   0.56776   0.56913   0.57025
 Alpha virt. eigenvalues --    0.57288   0.57412   0.57678   0.57767   0.58010
 Alpha virt. eigenvalues --    0.58149   0.58333   0.58386   0.58748   0.58794
 Alpha virt. eigenvalues --    0.58996   0.59201   0.59377   0.59499   0.59683
 Alpha virt. eigenvalues --    0.59807   0.60128   0.60308   0.60349   0.60546
 Alpha virt. eigenvalues --    0.60667   0.61003   0.61116   0.61279   0.61439
 Alpha virt. eigenvalues --    0.61585   0.61703   0.61802   0.62014   0.62179
 Alpha virt. eigenvalues --    0.62218   0.62321   0.62476   0.62822   0.62983
 Alpha virt. eigenvalues --    0.63080   0.63280   0.63355   0.63539   0.63798
 Alpha virt. eigenvalues --    0.63957   0.64175   0.64241   0.64375   0.64513
 Alpha virt. eigenvalues --    0.64695   0.64795   0.64992   0.65056   0.65356
 Alpha virt. eigenvalues --    0.65470   0.65589   0.65609   0.65693   0.66067
 Alpha virt. eigenvalues --    0.66105   0.66297   0.66362   0.66579   0.66697
 Alpha virt. eigenvalues --    0.66916   0.67074   0.67200   0.67291   0.67319
 Alpha virt. eigenvalues --    0.67422   0.67594   0.67702   0.67795   0.67919
 Alpha virt. eigenvalues --    0.68019   0.68184   0.68272   0.68457   0.68709
 Alpha virt. eigenvalues --    0.68925   0.69151   0.69321   0.69352   0.69539
 Alpha virt. eigenvalues --    0.69592   0.69764   0.69938   0.70040   0.70230
 Alpha virt. eigenvalues --    0.70337   0.70421   0.70537   0.70649   0.70850
 Alpha virt. eigenvalues --    0.70890   0.71068   0.71102   0.71254   0.71554
 Alpha virt. eigenvalues --    0.71838   0.71889   0.71943   0.72044   0.72184
 Alpha virt. eigenvalues --    0.72391   0.72566   0.72691   0.72885   0.72980
 Alpha virt. eigenvalues --    0.73156   0.73223   0.73578   0.73767   0.73885
 Alpha virt. eigenvalues --    0.73932   0.74042   0.74078   0.74205   0.74549
 Alpha virt. eigenvalues --    0.74654   0.74812   0.75002   0.75210   0.75342
 Alpha virt. eigenvalues --    0.75427   0.75653   0.75846   0.75958   0.76184
 Alpha virt. eigenvalues --    0.76209   0.76317   0.76546   0.76649   0.77017
 Alpha virt. eigenvalues --    0.77089   0.77196   0.77477   0.77711   0.77747
 Alpha virt. eigenvalues --    0.77866   0.77977   0.78097   0.78255   0.78360
 Alpha virt. eigenvalues --    0.78572   0.78693   0.78770   0.79040   0.79156
 Alpha virt. eigenvalues --    0.79315   0.79492   0.79629   0.79796   0.79942
 Alpha virt. eigenvalues --    0.80101   0.80179   0.80435   0.80589   0.80687
 Alpha virt. eigenvalues --    0.81086   0.81104   0.81509   0.81606   0.81664
 Alpha virt. eigenvalues --    0.81905   0.81956   0.82107   0.82192   0.82412
 Alpha virt. eigenvalues --    0.82528   0.82672   0.82714   0.83296   0.83341
 Alpha virt. eigenvalues --    0.83468   0.83623   0.83841   0.84015   0.84178
 Alpha virt. eigenvalues --    0.84382   0.84435   0.84608   0.84779   0.84889
 Alpha virt. eigenvalues --    0.84939   0.84985   0.85198   0.85284   0.85407
 Alpha virt. eigenvalues --    0.85541   0.85759   0.85964   0.86120   0.86174
 Alpha virt. eigenvalues --    0.86346   0.86520   0.86612   0.86689   0.86787
 Alpha virt. eigenvalues --    0.86997   0.87061   0.87275   0.87336   0.87653
 Alpha virt. eigenvalues --    0.87971   0.88053   0.88141   0.88316   0.88463
 Alpha virt. eigenvalues --    0.88525   0.88878   0.88970   0.89083   0.89267
 Alpha virt. eigenvalues --    0.89425   0.89562   0.89813   0.89960   0.90172
 Alpha virt. eigenvalues --    0.90310   0.90407   0.90563   0.90680   0.90867
 Alpha virt. eigenvalues --    0.90958   0.91134   0.91259   0.91320   0.91524
 Alpha virt. eigenvalues --    0.91745   0.91810   0.91913   0.92178   0.92229
 Alpha virt. eigenvalues --    0.92355   0.92564   0.92954   0.93164   0.93203
 Alpha virt. eigenvalues --    0.93363   0.93490   0.93580   0.93797   0.93901
 Alpha virt. eigenvalues --    0.94127   0.94173   0.94234   0.94457   0.94676
 Alpha virt. eigenvalues --    0.94824   0.95170   0.95236   0.95548   0.95902
 Alpha virt. eigenvalues --    0.95998   0.96038   0.96200   0.96392   0.96511
 Alpha virt. eigenvalues --    0.96612   0.96796   0.96981   0.97085   0.97196
 Alpha virt. eigenvalues --    0.97379   0.97547   0.97628   0.97896   0.97961
 Alpha virt. eigenvalues --    0.98128   0.98264   0.98490   0.98671   0.98922
 Alpha virt. eigenvalues --    0.99131   0.99198   0.99293   0.99467   0.99660
 Alpha virt. eigenvalues --    0.99826   0.99969   1.00030   1.00190   1.00315
 Alpha virt. eigenvalues --    1.00497   1.00601   1.00953   1.01011   1.01301
 Alpha virt. eigenvalues --    1.01333   1.01473   1.01828   1.01981   1.02132
 Alpha virt. eigenvalues --    1.02407   1.02496   1.02660   1.02837   1.02967
 Alpha virt. eigenvalues --    1.03095   1.03341   1.03574   1.03621   1.03650
 Alpha virt. eigenvalues --    1.04142   1.04164   1.04289   1.04419   1.04611
 Alpha virt. eigenvalues --    1.04826   1.04957   1.05059   1.05159   1.05257
 Alpha virt. eigenvalues --    1.05526   1.05676   1.05809   1.05896   1.06131
 Alpha virt. eigenvalues --    1.06250   1.06419   1.06536   1.06783   1.06858
 Alpha virt. eigenvalues --    1.07116   1.07215   1.07422   1.07555   1.07726
 Alpha virt. eigenvalues --    1.07804   1.08078   1.08334   1.08415   1.08506
 Alpha virt. eigenvalues --    1.08737   1.08877   1.09012   1.09343   1.09413
 Alpha virt. eigenvalues --    1.09431   1.09617   1.09733   1.09941   1.10253
 Alpha virt. eigenvalues --    1.10335   1.10436   1.10699   1.10855   1.10864
 Alpha virt. eigenvalues --    1.11069   1.11364   1.11460   1.11639   1.11729
 Alpha virt. eigenvalues --    1.11820   1.11941   1.12191   1.12223   1.12442
 Alpha virt. eigenvalues --    1.12594   1.12791   1.12964   1.13076   1.13318
 Alpha virt. eigenvalues --    1.13376   1.13425   1.13596   1.13727   1.13856
 Alpha virt. eigenvalues --    1.13965   1.14051   1.14425   1.14607   1.14624
 Alpha virt. eigenvalues --    1.14721   1.14830   1.15206   1.15448   1.15567
[...]
 Alpha virt. eigenvalues --    5.15570   5.16095   5.16221   5.16639   5.16746
 Alpha virt. eigenvalues --    5.17383   5.17488   5.17732   5.18082   5.18128
 Alpha virt. eigenvalues --    5.18544   5.18607   5.18731   5.19242   5.19375
 Alpha virt. eigenvalues --    5.19566   5.19695   5.19898   5.20115   5.20274
 Alpha virt. eigenvalues --    5.20654   5.20728   5.21019   5.21314   5.21646
 Alpha virt. eigenvalues --    5.21945   5.22065   5.22117   5.22387   5.22673
 Alpha virt. eigenvalues --    5.22873   5.23056   5.23266   5.23512   5.23827
 Alpha virt. eigenvalues --    5.23914   5.24056   5.24216   5.24307   5.24572
 Alpha virt. eigenvalues --    5.24787   5.25408   5.25725   5.26027   5.26530
 Alpha virt. eigenvalues --    5.26794   5.26937   5.27015   5.27653   5.27996
 Alpha virt. eigenvalues --    5.28208   5.28319   5.28921   5.29107   5.29568
 Alpha virt. eigenvalues --    5.29777   5.29985   5.30307   5.30615   5.30644
 Alpha virt. eigenvalues --    5.31175   5.31267   5.31745   5.31904   5.32136
 Alpha virt. eigenvalues --    5.32291   5.32714   5.32804   5.32984   5.33389
 Alpha virt. eigenvalues --    5.33597   5.33860   5.33962   5.34601   5.34808
 Alpha virt. eigenvalues --    5.34965   5.35490   5.35638   5.35779   5.35958
 Alpha virt. eigenvalues --    5.36367   5.36543   5.36636   5.37147   5.37615
 Alpha virt. eigenvalues --    5.37824   5.38582   5.38733   5.38893   5.39139
 Alpha virt. eigenvalues --    5.39191   5.39634   5.39987   5.40204   5.40424
 Alpha virt. eigenvalues --    5.40679   5.40866   5.41550   5.41608   5.41994
 Alpha virt. eigenvalues --    5.42245   5.42737   5.42872   5.42991   5.43590
 Alpha virt. eigenvalues --    5.43915   5.43951   5.44173   5.44356   5.44776
 Alpha virt. eigenvalues --    5.44862   5.45255   5.45545   5.46266   5.46825
 Alpha virt. eigenvalues --    5.47014   5.47207   5.47466   5.47769   5.48160
 Alpha virt. eigenvalues --    5.48491   5.48590   5.48921   5.49719   5.49855
 Alpha virt. eigenvalues --    5.49972   5.50000   5.50365   5.50810   5.50997
 Alpha virt. eigenvalues --    5.51419   5.51643   5.52130   5.52391   5.52972
 Alpha virt. eigenvalues --    5.53263   5.53495   5.54167   5.54300   5.54704
 Alpha virt. eigenvalues --    5.54815   5.55478   5.55622   5.55679   5.56308
 Alpha virt. eigenvalues --    5.56792   5.57374   5.57544   5.58192   5.58499
 Alpha virt. eigenvalues --    5.58847   5.59023   5.59778   5.60093   5.60296
 Alpha virt. eigenvalues --    5.61134   5.61147   5.61455   5.61704   5.61743
 Alpha virt. eigenvalues --    5.62329   5.62476   5.62743   5.63023   5.63389
 Alpha virt. eigenvalues --    5.63522   5.63871   5.63953   5.64391   5.64544
 Alpha virt. eigenvalues --    5.64819   5.65014   5.65465   5.65958   5.66146
 Alpha virt. eigenvalues --    5.66518   5.66967   5.67528   5.67542   5.68137
 Alpha virt. eigenvalues --    5.68500   5.69119   5.69816   5.70289   5.70601
 Alpha virt. eigenvalues --    5.70829   5.70837   5.71234   5.71437   5.71810
 Alpha virt. eigenvalues --    5.71999   5.72102   5.72622   5.73227   5.73294
 Alpha virt. eigenvalues --    5.73906   5.74127   5.74233   5.75605   5.75838
 Alpha virt. eigenvalues --    5.76467   5.77065   5.77824   5.77964   5.78482
 Alpha virt. eigenvalues --    5.78980   5.79328   5.80056   5.80924   5.81090
 Alpha virt. eigenvalues --    5.81964   5.82413   5.83021   5.83222   5.84254
 Alpha virt. eigenvalues --    5.85210   5.85488   5.86269   5.86583   5.87035
 Alpha virt. eigenvalues --    5.88561   5.89151   5.89387   5.89465   5.90079
 Alpha virt. eigenvalues --    5.90354   5.90508   5.91753   5.93733   5.94913
 Alpha virt. eigenvalues --    5.97058   5.97748   5.98497   5.99215   6.00609
 Alpha virt. eigenvalues --    6.02553   6.02614   6.02955   6.03951   6.04110
 Alpha virt. eigenvalues --    6.05226   6.05406   6.05726   6.06295   6.06496
 Alpha virt. eigenvalues --    6.06939   6.07444   6.08783   6.08970   6.10059
 Alpha virt. eigenvalues --    6.10735   6.11101   6.11660   6.12208   6.13418
 Alpha virt. eigenvalues --    6.16213   6.16693   6.19261   6.20204   6.21415
 Alpha virt. eigenvalues --    6.21893   6.23601   6.24325   6.28497   6.31429
 Alpha virt. eigenvalues --    6.31716   6.32762   6.35392   6.35734   6.40742
 Alpha virt. eigenvalues --    6.42400   6.42738   6.42980   6.44204   6.44920
 Alpha virt. eigenvalues --    6.46898   6.47057   6.47207   6.48187   6.49829
 Alpha virt. eigenvalues --    6.52588   6.53529   6.56292   6.57417   6.58984
 Alpha virt. eigenvalues --    6.61779   6.63446   6.66000   6.67979   6.70467
 Alpha virt. eigenvalues --    6.72844   6.73997   6.75088   6.76845   6.77447
 Alpha virt. eigenvalues --    6.77735   6.78586   6.79547   6.81771   6.83461
 Alpha virt. eigenvalues --    6.85453   6.85772   6.86673   6.86773   6.88290
 Alpha virt. eigenvalues --    6.88784   6.89820   6.90718   6.90882   6.91908
 Alpha virt. eigenvalues --    6.92183   6.93638   6.95184   6.95975   6.98929
 Alpha virt. eigenvalues --    7.00467   7.00901   7.02107   7.03371   7.05740
 Alpha virt. eigenvalues --    7.07007   7.08993   7.09643   7.11437   7.13534
 Alpha virt. eigenvalues --    7.14053   7.19336   7.21708   7.23282   7.26631
 Alpha virt. eigenvalues --    7.27864   7.28535   7.34788   7.36316   7.40640
 Alpha virt. eigenvalues --    7.42971   7.47008   7.48950   7.57767   7.59381
 Alpha virt. eigenvalues --    7.63475   7.65607   7.67274   7.70705   7.87951
 Alpha virt. eigenvalues --    7.91622   7.98257   8.02094   8.38356   8.45158
 Alpha virt. eigenvalues --    8.58143   8.63821   8.79293   8.83856   9.04811
 Alpha virt. eigenvalues --    9.08087   9.09106   9.27084   9.55900   9.58018
 Alpha virt. eigenvalues --    9.74535   9.81029  10.13958  10.17327  22.58337
 Alpha virt. eigenvalues --   22.59086  22.61032  22.69048  22.81767  22.84486
 Alpha virt. eigenvalues --   22.84946  22.93479  22.95393  22.97565  23.03015
 Alpha virt. eigenvalues --   23.03719  23.05188  23.05823  23.06797  23.09515
 Alpha virt. eigenvalues --   23.10518  23.11330  23.11878  23.12298  23.12844
 Alpha virt. eigenvalues --   23.15209  23.15644  23.15950  23.17361  23.17643
 Alpha virt. eigenvalues --   23.18135  23.18921  23.19506  23.19703  23.21151
 Alpha virt. eigenvalues --   23.21350  23.21586  23.23043  23.25939  23.27962
 Alpha virt. eigenvalues --   23.28221  23.28981  23.29317  23.29680  23.30760
 Alpha virt. eigenvalues --   23.31298  23.31982  23.32019  23.34918  23.36784
 Alpha virt. eigenvalues --   23.38181  23.40801  23.41773  23.42314  23.42621
 Alpha virt. eigenvalues --   23.43802  23.44672  23.45228  23.46694  23.51089
 Alpha virt. eigenvalues --   23.55434  23.55841  23.59934  23.61186  23.69357
 Alpha virt. eigenvalues --   23.72845  23.74436  23.79193  23.90448  23.90666
 Alpha virt. eigenvalues --   24.11412  24.12840  24.14302  24.26364  32.54156
 Alpha virt. eigenvalues --   32.59398  32.83791  33.07516  33.25064  33.28448
 Alpha virt. eigenvalues --   34.72774  34.80996  35.07023  43.30032  43.92836
 Alpha virt. eigenvalues --   43.98839  44.09574  44.14641  44.23184  44.28448
 Alpha virt. eigenvalues --   44.31643  44.43571  57.54343  57.85742 117.96126
          Condensed to atoms (all electrons):
 Mulliken charges:
               1
     1  C    0.207176
     2  C   -0.033935
     3  C    0.070661
     4  C   -0.208974
     5  C    0.272850
     6  N   -0.283786
     7  H    0.142968
     8  C   -0.030561
     9  C    0.116924
    10  C   -0.157097
    11  C   -0.183323
    12  C   -0.142664
    13  H    0.152622
    14  H    0.158520
    15  H    0.177058
    16  C    0.248689
    17  C    0.079231
    18  C   -0.224986
    19  C   -0.186245
    20  C   -0.165812
    21  H    0.147813
    22  C   -0.195549
    23  H    0.181724
    24  C   -0.155389
    25  H    0.147396
    26  H    0.150163
    27  H    0.149425
    28  F   -0.245371
    29  C   -0.302957
    30  H    0.121970
    31  H    0.105246
    32  H    0.092253
    33  C   -0.053785
    34  C   -0.040056
    35  C    0.019342
    36  H    0.098490
    37  H    0.106945
    38  C    0.002385
    39  H    0.124772
    40  H    0.103229
    41  H    0.075840
    42  H    0.103413
    43  H    0.093579
    44  H    0.098835
    45  N   -0.006413
    46  O   -0.335359
    47  I   -0.008038
    48  H    0.186411
    49  C   -0.144706
    50  C   -0.202983
    51  C   -0.169141
    52  C    0.047594
    53  C   -0.118690
    54  C   -0.149216
    55  H    0.151892
    56  H    0.159363
    57  C    0.263267
    58  C   -0.229177
    59  H    0.142320
    60  H    0.150488
    61  C   -0.102867
    62  C   -0.117555
    63  H    0.146042
    64  C    0.209334
    65  C   -0.069323
    66  C   -0.158164
    67  C   -0.107470
    68  C    0.013355
    69  C   -0.208035
    70  C   -0.176562
    71  C   -0.114750
    72  C   -0.139950
    73  H    0.159585
    74  H    0.145115
    75  C   -0.151026
    76  H    0.142901
    77  H    0.151475
    78  H    0.150579
    79  S    0.881319
    80  O   -0.513933
    81  O   -0.564936
    82  S    0.869433
    83  O   -0.525623
    84  O   -0.581066
    85  N   -0.454215
    86  N   -0.381226
    87  C    0.319866
    88  C   -0.119893
    89  C   -0.093957
    90  C    0.243734
    91  O   -0.361203
    92  O   -0.362798
    93  H    0.109956
    94  H    0.099343
    95  H    0.093767
    96  H    0.096000
    97  C    0.158032
    98  C   -0.158859
    99  C    0.003528
   100  C   -0.209433
   101  C    0.164452
   102  N   -0.233940
   103  H    0.136045
   104  C   -0.103903
   105  C    0.140792
   106  C   -0.204738
   107  C   -0.209939
   108  C   -0.145972
   109  H    0.148748
   110  H    0.156573
   111  H    0.151019
   112  C    0.325593
   113  C    0.036821
   114  C   -0.163193
   115  C   -0.191168
   116  C   -0.167440
   117  H    0.136566
   118  C   -0.173453
   119  H    0.154229
   120  C   -0.151124
   121  H    0.149098
   122  H    0.150560
   123  H    0.151917
   124  F   -0.227807
   125  C   -0.293117
   126  H    0.087699
   127  H    0.106519
   128  H    0.129905
   129  C   -0.031310
   130  C   -0.000823
   131  C   -0.013351
   132  H    0.103740
   133  H    0.084152
   134  C   -0.015225
   135  H    0.082103
   136  H    0.084230
   137  H    0.071477
   138  H    0.096664
   139  H    0.074966
   140  H    0.093259
   141  N   -0.129240
   142  O   -0.348034
   143  H    0.130932
   144  H    0.329275
   145  H    0.170470
   146  H    0.158817
 Sum of Mulliken charges =  -0.00000
 Mulliken charges with hydrogens summed into heavy atoms:
               1
     1  C    0.207176
     2  C    0.152477
     3  C    0.070661
     4  C   -0.066006
     5  C    0.272850
     6  N   -0.283786
     8  C   -0.030561
     9  C    0.116924
    10  C   -0.004475
    11  C   -0.006265
    12  C    0.015856
    16  C    0.248689
    17  C    0.079231
    18  C   -0.077173
    19  C   -0.004521
    20  C   -0.018416
    22  C   -0.045386
    24  C   -0.005964
    28  F   -0.245371
    29  C    0.016512
    33  C    0.151649
    34  C    0.187945
    35  C    0.198596
    38  C    0.194798
    45  N   -0.006413
    46  O   -0.335359
    47  I   -0.008038
    49  C    0.007186
    50  C   -0.043620
    51  C   -0.169141
    52  C    0.047594
    53  C    0.023630
    54  C    0.001272
    57  C    0.263267
    58  C   -0.083135
    61  C    0.067603
    62  C   -0.117555
    64  C    0.209334
    65  C   -0.069323
    66  C   -0.158164
    67  C    0.051347
    68  C    0.013355
    69  C   -0.048451
    70  C   -0.031448
    71  C    0.028151
    72  C    0.011525
    75  C   -0.000448
    79  S    0.881319
    80  O   -0.513933
    81  O   -0.564936
    82  S    0.869433
    83  O   -0.525623
    84  O   -0.581066
    85  N   -0.454215
    86  N   -0.381226
    87  C    0.319866
    88  C    0.089406
    89  C    0.095810
    90  C    0.243734
    91  O   -0.361203
    92  O   -0.033523
    97  C    0.158032
    98  C   -0.027927
    99  C    0.003528
   100  C   -0.073388
   101  C    0.164452
   102  N   -0.233940
   104  C   -0.103903
   105  C    0.140792
   106  C   -0.055990
   107  C   -0.058921
   108  C    0.010601
   112  C    0.325593
   113  C    0.036821
   114  C   -0.026628
   115  C   -0.036939
   116  C   -0.018342
   118  C   -0.022893
   120  C    0.000793
   124  F   -0.227807
   125  C    0.031005
   129  C    0.156582
   130  C    0.165510
   131  C    0.154789
   134  C    0.153001
   141  N   -0.129240
   142  O   -0.348034
 Electronic spatial extent (au):  <R**2>=         103764.3414
 Charge=              0.0000 electrons
 Dipole moment (field-independent basis, Debye):
    X=              6.5476    Y=             -9.0711    Z=             -0.1980  Tot=             11.1890
 Quadrupole moment (field-independent basis, Debye-Ang):
   XX=           -523.9926   YY=           -416.6017   ZZ=           -492.2895
   XY=            -12.8507   XZ=            -12.4151   YZ=              7.3244
 Traceless Quadrupole moment (field-independent basis, Debye-Ang):
   XX=            -46.3646   YY=             61.0262   ZZ=            -14.6616
   XY=            -12.8507   XZ=            -12.4151   YZ=              7.3244
 Octapole moment (field-independent basis, Debye-Ang**2):
  XXX=           -210.1845  YYY=           3249.3339  ZZZ=           2886.7542  XYY=             16.6710
  XXY=           1523.6840  XXZ=           1015.1172  XZZ=            -18.9448  YZZ=           1214.2883
  YYZ=            620.0547  XYZ=             36.5177
 Hexadecapole moment (field-independent basis, Debye-Ang**3):
 XXXX=         -30416.1815 YYYY=         -61538.0508 ZZZZ=         -38544.7390 XXXY=           7349.0303
 XXXZ=          -2324.0948 YYYX=           6084.7132 YYYZ=         -10355.2872 ZZZX=          -1831.2796
 ZZZY=         -14125.4213 XXYY=         -17013.2941 XXZZ=         -11381.2456 YYZZ=         -16473.2970
 XXYZ=          -4396.8373 YYXZ=          -1451.5383 ZZXY=           2708.6368
 N-N= 1.867705430687D+04 E-N=-4.864622863092D+04  KE= 4.647809582957D+03
 Leave Link  601 at Sat Nov  9 16:02:51 2024, MaxMem=  8589934592 cpu:              25.6 elap:               1.6
 (Enter /ihome/crc/install/gaussian/c01/avx2/tar/g16/l9999.exe)
 Unable to Open any file for archive entry.
 1\1\GINC-SMP-N229\SP\RB3LYP\def2TZVPP\C68H59F2I1N6O8S2\BIM12\09-Nov-20
 24\0\\#p b3lyp def2tzvpp scf=maxcycle=128 nosymm scrf=(smd,solvent=pro
 pylethanoate) empiricaldispersion=gd3bj\\Title Card Required\\0,1\C,0,
 1.861275,-2.395812,-0.10745\C,0,0.587822,-3.053203,-0.45753\C,0,-0.266
 021,-3.413796,0.684866\C,0,0.242468,-3.339918,1.939588\C,0,1.610717,-2
 .920562,2.124288\N,0,2.346919,-2.410394,1.093261\H,0,-0.381452,-3.6142
 61,2.785576\C,0,2.67927,-1.713625,-1.151931\C,0,4.096976,-1.763516,-1.
 157498\C,0,4.812135,-0.977221,-2.06647\C,0,2.775299,-0.099643,-3.00146
 2\C,0,4.162803,-0.144398,-2.97547\H,0,5.901298,-1.038737,-2.066111\H,0
 ,4.741303,0.463893,-3.672155\H,0,2.220142,0.540114,-3.688166\C,0,2.064
 393,-0.888454,-2.105567\C,0,4.898238,-2.663098,-0.274691\C,0,5.839128,
 -2.118727,0.608661\C,0,4.798213,-4.055746,-0.387765\C,0,6.641881,-2.95
 197,1.388957\H,0,5.930921,-1.033404,0.693166\C,0,5.600356,-4.887505,0.
 392238\H,0,4.109074,-4.50299,-1.105504\C,0,6.520621,-4.338607,1.287453
 \H,0,7.365837,-2.513782,2.079024\H,0,5.502178,-5.968097,0.27434\H,0,7.
 149228,-4.989683,1.898183\F,0,0.735998,-0.801408,-2.155995\C,0,-1.6527
 59,-3.8908,0.406665\H,0,-2.210112,-3.101689,-0.120748\H,0,-1.618556,-4
 .774755,-0.250158\H,0,-2.178663,-4.153026,1.333029\C,0,1.615214,-3.477
 961,4.538239\C,0,3.623266,-2.609324,3.492976\C,0,2.45843,-4.626086,5.0
 84307\H,0,0.58713,-3.809711,4.380286\H,0,1.609199,-2.647135,5.260857\C
 ,0,4.376328,-3.797831,4.0767\H,0,4.052106,-2.303636,2.535339\H,0,3.651
 635,-1.765596,4.200296\H,0,2.40484,-5.479837,4.381753\H,0,2.05533,-4.9
 44998,6.05439\H,0,4.39005,-4.619231,3.335197\H,0,5.412298,-3.506968,4.
 295507\N,0,2.218219,-2.982929,3.301875\O,0,3.790192,-4.232078,5.280062
 \I,0,1.237976,-4.955595,-1.406203\H,0,0.033352,-2.574499,-1.26754\C,0,
 -2.47606,4.952133,-3.959146\C,0,-2.709793,4.001668,-2.995103\C,0,-1.62
 9927,3.355626,-2.32605\C,0,-0.29752,3.70011,-2.703724\C,0,-0.088622,4.
 698341,-3.69603\C,0,-1.151234,5.314667,-4.308306\H,0,-3.317854,5.42859
 7,-4.464147\H,0,-3.734858,3.725893,-2.746154\C,0,-1.840166,2.358138,-1
 .314324\C,0,0.799265,3.030952,-2.096463\H,0,0.937841,4.956452,-3.96518
 1\H,0,-0.980927,6.076069,-5.07128\C,0,0.582786,2.030994,-1.185096\C,0,
 -0.737692,1.693055,-0.807144\H,0,1.815172,3.311562,-2.382965\C,0,-3.23
 0178,2.049372,-0.850311\C,0,-3.794736,0.796255,-1.011869\C,0,-3.999376
 ,3.062554,-0.183759\C,0,-5.115986,0.504515,-0.600918\C,0,-5.340592,2.7
 75987,0.211221\C,0,-3.464247,4.346668,0.127223\C,0,-5.881451,1.483422,
 -0.023232\C,0,-6.11005,3.784518,0.856417\C,0,-4.228375,5.295344,0.7620
 77\H,0,-2.429611,4.572403,-0.131373\H,0,-6.908803,1.277207,0.283285\C,
 0,-5.570839,5.018188,1.122182\H,0,-7.137241,3.549733,1.143273\H,0,-3.7
 95963,6.269394,0.996504\H,0,-6.167458,5.783771,1.620927\S,0,-0.955806,
 0.303876,0.288646\O,0,-1.750715,0.754052,1.393171\O,0,0.355884,-0.1902
 29,0.610509\S,0,-2.804149,-0.537795,-1.652415\O,0,-2.265812,-0.091882,
 -2.907811\O,0,-3.640814,-1.708429,-1.718791\N,0,-1.697748,-0.797858,-0
 .566373\N,0,1.943272,-7.268359,-2.48631\C,0,1.198643,-8.208894,-3.0048
 8\C,0,1.765673,-9.602724,-2.8821\C,0,3.132192,-9.33898,-2.260019\C,0,3
 .111655,-7.837602,-1.972089\O,0,3.964556,-7.215913,-1.389422\O,0,0.070
 776,-8.021234,-3.578875\H,0,1.097257,-10.2022,-2.246656\H,0,1.79533,-1
 0.076582,-3.872933\H,0,3.964752,-9.546209,-2.94781\H,0,3.324557,-9.887
 043,-1.328693\C,0,0.773552,-5.09594,-5.004011\C,0,0.907548,-3.731112,-
 5.185542\C,0,-0.118439,-2.882998,-4.728026\C,0,-1.220027,-3.446297,-4.
 095631\C,0,-1.306584,-4.854846,-3.968435\N,0,-0.300294,-5.635103,-4.40
 0277\H,0,-2.031239,-2.799756,-3.757381\C,0,1.825458,-6.062438,-5.42767
 7\C,0,1.530013,-7.230971,-6.163903\C,0,2.537279,-8.185004,-6.362049\C,
 0,4.134194,-6.830026,-5.155561\C,0,3.823517,-7.99019,-5.860118\H,0,2.3
 09603,-9.081708,-6.940706\H,0,4.594592,-8.743516,-6.029587\H,0,5.12403
 4,-6.643659,-4.737609\C,0,3.130459,-5.89355,-4.956861\C,0,0.171532,-7.
 476067,-6.725992\C,0,-0.438467,-8.727494,-6.569968\C,0,-0.520148,-6.47
 0747,-7.417779\C,0,-1.716558,-8.964463,-7.076279\H,0,0.081149,-9.51196
 2,-6.017002\C,0,-1.79555,-6.707326,-7.924987\H,0,-0.052425,-5.494034,-
 7.558682\C,0,-2.400944,-7.954032,-7.751264\H,0,-2.181577,-9.94172,-6.9
 34691\H,0,-2.319821,-5.913586,-8.460219\H,0,-3.403242,-8.136084,-8.143
 394\F,0,3.418141,-4.810755,-4.228937\C,0,-0.055438,-1.409695,-5.003026
 \H,0,0.98445,-1.057185,-4.992725\H,0,-0.455978,-1.215946,-6.01152\H,0,
 -0.652375,-0.839376,-4.281258\C,0,-3.423463,-4.76823,-2.695099\C,0,-2.
 846077,-6.777508,-3.915572\C,0,-4.649386,-4.608122,-3.58025\H,0,-3.066
 232,-3.798243,-2.334819\H,0,-3.707788,-5.368684,-1.81428\C,0,-4.10829,
 -6.55488,-4.745388\H,0,-2.077943,-7.247956,-4.541674\H,0,-3.064321,-7.
 448926,-3.069296\H,0,-4.405315,-3.963776,-4.447848\H,0,-5.469889,-4.13
 901,-3.020973\H,0,-3.839989,-5.984575,-5.657236\H,0,-4.531909,-7.52089
 6,-5.055442\N,0,-2.374616,-5.493818,-3.397859\O,0,-5.101948,-5.870061,
 -4.021973\H,0,1.790262,-3.326055,-5.680393\H,0,-0.12104,-6.993206,-3.8
 79911\H,0,1.408853,1.483834,-0.729976\H,0,-5.500281,-0.502682,-0.76011
 1\\Version=ES64L-G16RevC.01\HF=-4852.9034192\RMSD=6.521e-10\Dipole=2.5
 760055,-3.5688453,-0.0779007\Quadrupole=-34.4709775,45.3715207,-10.900
 5432,-9.5541631,-9.2303235,5.4455415\PG=C01 [X(C68H59F2I1N6O8S2)]\\@
 The archive entry for this job was punched.


 "A LITTLE BIT GOES A LONG WAY"
 R.S. MULLIKEN AS QUOTED BY K. RUEDENBERG
 Job cpu time:       1 days 13 hours 50 minutes 48.8 seconds.
 Elapsed time:       0 days  1 hours 11 minutes 21.0 seconds.
 File lengths (MBytes):  RWF=   8328 Int=      0 D2E=      0 Chk=    733 Scr=      1
 Normal termination of Gaussian 16 at Sat Nov  9 16:02:53 2024.
