 Entering Gaussian System, Link 0=g16
 Initial command:
 /opt/packages/gaussian/g16RevC.01/g16/l1.exe "/local/Gau-22309.inp" -scrdir="/local/"
 Entering Link 1 = /opt/packages/gaussian/g16RevC.01/g16/l1.exe PID=     22310.
  
 Copyright (c) 1988-2019, Gaussian, Inc.  All Rights Reserved.
  
 This is part of the Gaussian(R) 16 program.  It is based on
 the Gaussian(R) 09 system (copyright 2009, Gaussian, Inc.),
 the Gaussian(R) 03 system (copyright 2003, Gaussian, Inc.),
 the Gaussian(R) 98 system (copyright 1998, Gaussian, Inc.),
 the Gaussian(R) 94 system (copyright 1995, Gaussian, Inc.),
 the Gaussian 92(TM) system (copyright 1992, Gaussian, Inc.),
 the Gaussian 90(TM) system (copyright 1990, Gaussian, Inc.),
 the Gaussian 88(TM) system (copyright 1988, Gaussian, Inc.),
 the Gaussian 86(TM) system (copyright 1986, Carnegie Mellon
 University), and the Gaussian 82(TM) system (copyright 1983,
 Carnegie Mellon University). Gaussian is a federally registered
 trademark of Gaussian, Inc.
  
 This software contains proprietary and confidential information,
 including trade secrets, belonging to Gaussian, Inc.
  
 This software is provided under written license and may be
 used, copied, transmitted, or stored only in accord with that
 written license.
  
 The following legend is applicable only to US Government
 contracts under FAR:
  
                    RESTRICTED RIGHTS LEGEND
  
 Use, reproduction and disclosure by the US Government is
 subject to restrictions as set forth in subparagraphs (a)
 and (c) of the Commercial Computer Software - Restricted
 Rights clause in FAR 52.227-19.
  
 Gaussian, Inc.
 340 Quinnipiac St., Bldg. 40, Wallingford CT 06492
  
  
 ---------------------------------------------------------------
 Warning -- This program may not be used in any manner that
 competes with the business of Gaussian, Inc. or will provide
 assistance to any competitor of Gaussian, Inc.  The licensee
 of this program is prohibited from giving any competitor of
 Gaussian, Inc. access to this program.  By using this program,
 the user acknowledges that Gaussian, Inc. is engaged in the
 business of creating and licensing software in the field of
 computational chemistry and represents and warrants to the
 licensee that it is not a competitor of Gaussian, Inc. and that
 it will not use this program in any manner prohibited above.
 ---------------------------------------------------------------
  

 Cite this work as:
 Gaussian 16, Revision C.01,
 M. J. Frisch, G. W. Trucks, H. B. Schlegel, G. E. Scuseria, 
 M. A. Robb, J. R. Cheeseman, G. Scalmani, V. Barone, 
 G. A. Petersson, H. Nakatsuji, X. Li, M. Caricato, A. V. Marenich, 
 J. Bloino, B. G. Janesko, R. Gomperts, B. Mennucci, H. P. Hratchian, 
 J. V. Ortiz, A. F. Izmaylov, J. L. Sonnenberg, D. Williams-Young, 
 F. Ding, F. Lipparini, F. Egidi, J. Goings, B. Peng, A. Petrone, 
 T. Henderson, D. Ranasinghe, V. G. Zakrzewski, J. Gao, N. Rega, 
 G. Zheng, W. Liang, M. Hada, M. Ehara, K. Toyota, R. Fukuda, 
 J. Hasegawa, M. Ishida, T. Nakajima, Y. Honda, O. Kitao, H. Nakai, 
 T. Vreven, K. Throssell, J. A. Montgomery, Jr., J. E. Peralta, 
 F. Ogliaro, M. J. Bearpark, J. J. Heyd, E. N. Brothers, K. N. Kudin, 
 V. N. Staroverov, T. A. Keith, R. Kobayashi, J. Normand, 
 K. Raghavachari, A. P. Rendell, J. C. Burant, S. S. Iyengar, 
 J. Tomasi, M. Cossi, J. M. Millam, M. Klene, C. Adamo, R. Cammi, 
 J. W. Ochterski, R. L. Martin, K. Morokuma, O. Farkas, 
 J. B. Foresman, and D. J. Fox, Gaussian, Inc., Wallingford CT, 2019.
 
 ******************************************
 Gaussian 16:  ES64L-G16RevC.01  3-Jul-2019
                11-Jun-2024 
 ******************************************
 %nprocshared=32
 Will use up to   32 processors via shared memory.
 %mem=64GB
 ----------------------------------------------------------------------
 #p b3lyp def2tzvpp scf=maxcycle=128 nosymm scrf=(smd,solvent=propyleth
 anoate) empiricaldispersion=gd3bj
 ----------------------------------------------------------------------
 1/38=1,172=1/1;
 2/12=2,15=1,17=6,18=5,40=1/2;
 3/5=44,7=202,11=2,25=1,30=1,70=32201,72=169,74=-5,124=41/1,2,3;
 4//1;
 5/5=2,7=128,38=5,53=169/2;
 6/7=2,8=2,9=2,10=2,28=1/1;
 99/5=1,9=1/99;
 Leave Link    1 at Tue Jun 11 20:58:41 2024, MaxMem=  8589934592 cpu:               1.1 elap:               0.0
 (Enter /opt/packages/gaussian/g16RevC.01/g16/l101.exe)
 -------------------
 Title Card Required
 -------------------
 Symbolic Z-matrix:
 Charge =  0 Multiplicity = 1
 C                     1.67921  -1.81685  -0.31833 
 C                     0.32266  -2.18962  -0.82862 
 C                    -0.53485  -2.92018   0.13812 
 C                    -0.01575  -3.30147   1.32538 
 C                     1.38554  -3.0655    1.60311 
 N                     2.15593  -2.28668   0.78178 
 H                    -0.65449  -3.80286   2.04709 
 C                     2.54838  -0.89159  -1.0972 
 C                     3.96268  -1.02082  -1.11519 
 C                     4.73341  -0.055    -1.77102 
 C                     2.76511   1.16715  -2.42304 
 C                     4.14652   1.03151  -2.41638 
 H                     5.8168   -0.17847  -1.79404 
 H                     4.7697    1.76832  -2.92498 
 H                     2.25385   1.99703  -2.91175 
 C                     1.99844   0.21035  -1.77258 
 C                     4.70182  -2.17025  -0.51625 
 C                     5.77553  -1.92641   0.34845 
 C                     4.3973   -3.49449  -0.8615 
 C                     6.52276  -2.98456   0.86994 
 H                     6.01901  -0.89852   0.6253 
 C                     5.14456  -4.54891  -0.34394 
 H                     3.57099  -3.69473  -1.54787 
 C                     6.21037  -4.29805   0.52504 
 H                     7.35301  -2.77716   1.54754 
 H                     4.90002  -5.57445  -0.62732 
 H                     6.79553  -5.12657   0.92836 
 F                     0.68083   0.40152  -1.78268 
 C                    -1.95446  -3.18514  -0.23734 
 H                    -2.42455  -2.25957  -0.60275 
 H                    -1.99744  -3.9284   -1.04901 
 H                    -2.52119  -3.56819   0.62003 
 C                     1.33925  -4.33158   3.72835 
 C                     3.42977  -3.38949   2.9166 
 C                     2.07549  -5.65102   3.93226 
 H                     0.28788  -4.51828   3.50239 
 H                     1.39998  -3.7281    4.64707 
 C                     4.06133  -4.75628   3.15388 
 H                     3.89294  -2.88369   2.06462 
 H                     3.5354   -2.76756   3.81905 
 H                     1.9563   -6.27853   3.02832 
 H                     1.63339  -6.18043   4.78597 
 H                     4.00453  -5.35194   2.22344 
 H                     5.11845  -4.62425   3.41881 
 N                     1.99118  -3.56146   2.66565 
 O                     3.43232  -5.43728   4.20969 
 I                     0.64044  -3.39566  -2.60882 
 H                    -0.22482  -1.32286  -1.21204 
 C                    -1.90001   6.68881  -1.3462 
 C                    -2.22384   5.49766  -0.74318 
 C                    -1.21233   4.56313  -0.3767 
 C                     0.14528   4.88342  -0.67811 
 C                     0.44939   6.13135  -1.29041 
 C                    -0.54769   7.01714  -1.61449 
 H                    -2.69138   7.38593  -1.62615 
 H                    -3.26979   5.25485  -0.55422 
 C                    -1.51785   3.30998   0.25502 
 C                     1.17039   3.9463   -0.37797 
 H                     1.49468   6.36363  -1.50498 
 H                    -0.30489   7.96956  -2.08864 
 C                     0.85773   2.72508   0.15897 
 C                    -0.48762   2.40982   0.46254 
 H                     2.20747   4.20636  -0.60096 
 C                    -2.92698   3.00048   0.65594 
 C                    -3.62253   1.93082   0.11997 
 C                    -3.57463   3.80505   1.65445 
 C                    -4.96276   1.65026   0.47446 
 C                    -4.93357   3.53444   1.99674 
 C                    -2.90197   4.85506   2.34524 
 C                    -5.61226   2.45129   1.37673 
 C                    -5.58267   4.3409    2.97324 
 C                    -3.55216   5.60819   3.29242 
 H                    -1.85261   5.05349   2.12686 
 H                    -6.65203   2.25592   1.64662 
 C                    -4.91176   5.3581    3.60453 
 H                    -6.6255    4.1248    3.21482 
 H                    -3.01525   6.40264   3.8133 
 H                    -5.41711   5.96841   4.35486 
 S                    -0.8408    0.76407   1.04885 
 O                    -1.54496   0.89536   2.2904 
 O                     0.4187    0.06483   1.11109 
 S                    -2.79649   0.79161  -0.97414 
 O                    -2.20927   1.56447  -2.02792 
 O                    -3.75355  -0.20438  -1.36661 
 N                    -1.71324   0.0789   -0.06957 
 H                    -5.45391   0.79514   0.01076 
 H                     1.6263    1.98144   0.371 
 
 ITRead=  0  0  0  0  0  0  0  0  0  0  0  0  0  0  0  0  0  0  0  0
 ITRead=  0  0  0  0  0  0  0  0  0  0  0  0  0  0  0  0  0  0  0  0
 ITRead=  0  0  0  0  0  0  0  0  0  0  0  0  0  0  0  0  0  0  0  0
 ITRead=  0  0  0  0  0  0  0  0  0  0  0  0  0  0  0  0  0  0  0  0
 ITRead=  0  0  0  0  0  0  0
 MicOpt= -1 -1 -1 -1 -1 -1 -1 -1 -1 -1 -1 -1 -1 -1 -1 -1 -1 -1 -1 -1
 MicOpt= -1 -1 -1 -1 -1 -1 -1 -1 -1 -1 -1 -1 -1 -1 -1 -1 -1 -1 -1 -1
 MicOpt= -1 -1 -1 -1 -1 -1 -1 -1 -1 -1 -1 -1 -1 -1 -1 -1 -1 -1 -1 -1
 MicOpt= -1 -1 -1 -1 -1 -1 -1 -1 -1 -1 -1 -1 -1 -1 -1 -1 -1 -1 -1 -1
 MicOpt= -1 -1 -1 -1 -1 -1 -1
 NAtoms=     87 NQM=       87 NQMF=       0 NMMI=      0 NMMIF=      0
                NMic=       0 NMicF=      0.
                    Isotopes and Nuclear Properties:
 (Nuclear quadrupole moments (NQMom) in fm**2, nuclear magnetic moments (NMagM)
  in nuclear magnetons)

  Atom         1           2           3           4           5           6           7           8           9          10
 IAtWgt=          12          12          12          12          12          14           1          12          12          12
 AtmWgt=  12.0000000  12.0000000  12.0000000  12.0000000  12.0000000  14.0030740   1.0078250  12.0000000  12.0000000  12.0000000
 NucSpn=           0           0           0           0           0           2           1           0           0           0
 AtZEff=   0.0000000   0.0000000   0.0000000   0.0000000   0.0000000   0.0000000   0.0000000   0.0000000   0.0000000   0.0000000
 NQMom=    0.0000000   0.0000000   0.0000000   0.0000000   0.0000000   2.0440000   0.0000000   0.0000000   0.0000000   0.0000000
 NMagM=    0.0000000   0.0000000   0.0000000   0.0000000   0.0000000   0.4037610   2.7928460   0.0000000   0.0000000   0.0000000
 AtZNuc=   6.0000000   6.0000000   6.0000000   6.0000000   6.0000000   7.0000000   1.0000000   6.0000000   6.0000000   6.0000000

  Atom        11          12          13          14          15          16          17          18          19          20
 IAtWgt=          12          12           1           1           1          12          12          12          12          12
 AtmWgt=  12.0000000  12.0000000   1.0078250   1.0078250   1.0078250  12.0000000  12.0000000  12.0000000  12.0000000  12.0000000
 NucSpn=           0           0           1           1           1           0           0           0           0           0
 AtZEff=   0.0000000   0.0000000   0.0000000   0.0000000   0.0000000   0.0000000   0.0000000   0.0000000   0.0000000   0.0000000
 NQMom=    0.0000000   0.0000000   0.0000000   0.0000000   0.0000000   0.0000000   0.0000000   0.0000000   0.0000000   0.0000000
 NMagM=    0.0000000   0.0000000   2.7928460   2.7928460   2.7928460   0.0000000   0.0000000   0.0000000   0.0000000   0.0000000
 AtZNuc=   6.0000000   6.0000000   1.0000000   1.0000000   1.0000000   6.0000000   6.0000000   6.0000000   6.0000000   6.0000000

  Atom        21          22          23          24          25          26          27          28          29          30
 IAtWgt=           1          12           1          12           1           1           1          19          12           1
 AtmWgt=   1.0078250  12.0000000   1.0078250  12.0000000   1.0078250   1.0078250   1.0078250  18.9984032  12.0000000   1.0078250
 NucSpn=           1           0           1           0           1           1           1           1           0           1
 AtZEff=   0.0000000   0.0000000   0.0000000   0.0000000   0.0000000   0.0000000   0.0000000   0.0000000   0.0000000   0.0000000
 NQMom=    0.0000000   0.0000000   0.0000000   0.0000000   0.0000000   0.0000000   0.0000000   0.0000000   0.0000000   0.0000000
 NMagM=    2.7928460   0.0000000   2.7928460   0.0000000   2.7928460   2.7928460   2.7928460   2.6288670   0.0000000   2.7928460
 AtZNuc=   1.0000000   6.0000000   1.0000000   6.0000000   1.0000000   1.0000000   1.0000000   9.0000000   6.0000000   1.0000000

  Atom        31          32          33          34          35          36          37          38          39          40
 IAtWgt=           1           1          12          12          12           1           1          12           1           1
 AtmWgt=   1.0078250   1.0078250  12.0000000  12.0000000  12.0000000   1.0078250   1.0078250  12.0000000   1.0078250   1.0078250
 NucSpn=           1           1           0           0           0           1           1           0           1           1
 AtZEff=   0.0000000   0.0000000   0.0000000   0.0000000   0.0000000   0.0000000   0.0000000   0.0000000   0.0000000   0.0000000
 NQMom=    0.0000000   0.0000000   0.0000000   0.0000000   0.0000000   0.0000000   0.0000000   0.0000000   0.0000000   0.0000000
 NMagM=    2.7928460   2.7928460   0.0000000   0.0000000   0.0000000   2.7928460   2.7928460   0.0000000   2.7928460   2.7928460
 AtZNuc=   1.0000000   1.0000000   6.0000000   6.0000000   6.0000000   1.0000000   1.0000000   6.0000000   1.0000000   1.0000000

  Atom        41          42          43          44          45          46          47          48          49          50
 IAtWgt=           1           1           1           1          14          16         127           1          12          12
 AtmWgt=   1.0078250   1.0078250   1.0078250   1.0078250  14.0030740  15.9949146 126.9004000   1.0078250  12.0000000  12.0000000
 NucSpn=           1           1           1           1           2           0           5           1           0           0
 AtZEff=   0.0000000   0.0000000   0.0000000   0.0000000   0.0000000   0.0000000   0.0000000   0.0000000   0.0000000   0.0000000
 NQMom=    0.0000000   0.0000000   0.0000000   0.0000000   2.0440000   0.0000000 -71.0000000   0.0000000   0.0000000   0.0000000
 NMagM=    2.7928460   2.7928460   2.7928460   2.7928460   0.4037610   0.0000000   2.8132800   2.7928460   0.0000000   0.0000000
 AtZNuc=   1.0000000   1.0000000   1.0000000   1.0000000   7.0000000   8.0000000  53.0000000   1.0000000   6.0000000   6.0000000

  Atom        51          52          53          54          55          56          57          58          59          60
 IAtWgt=          12          12          12          12           1           1          12          12           1           1
 AtmWgt=  12.0000000  12.0000000  12.0000000  12.0000000   1.0078250   1.0078250  12.0000000  12.0000000   1.0078250   1.0078250
 NucSpn=           0           0           0           0           1           1           0           0           1           1
 AtZEff=   0.0000000   0.0000000   0.0000000   0.0000000   0.0000000   0.0000000   0.0000000   0.0000000   0.0000000   0.0000000
 NQMom=    0.0000000   0.0000000   0.0000000   0.0000000   0.0000000   0.0000000   0.0000000   0.0000000   0.0000000   0.0000000
 NMagM=    0.0000000   0.0000000   0.0000000   0.0000000   2.7928460   2.7928460   0.0000000   0.0000000   2.7928460   2.7928460
 AtZNuc=   6.0000000   6.0000000   6.0000000   6.0000000   1.0000000   1.0000000   6.0000000   6.0000000   1.0000000   1.0000000

  Atom        61          62          63          64          65          66          67          68          69          70
 IAtWgt=          12          12           1          12          12          12          12          12          12          12
 AtmWgt=  12.0000000  12.0000000   1.0078250  12.0000000  12.0000000  12.0000000  12.0000000  12.0000000  12.0000000  12.0000000
 NucSpn=           0           0           1           0           0           0           0           0           0           0
 AtZEff=   0.0000000   0.0000000   0.0000000   0.0000000   0.0000000   0.0000000   0.0000000   0.0000000   0.0000000   0.0000000
 NQMom=    0.0000000   0.0000000   0.0000000   0.0000000   0.0000000   0.0000000   0.0000000   0.0000000   0.0000000   0.0000000
 NMagM=    0.0000000   0.0000000   2.7928460   0.0000000   0.0000000   0.0000000   0.0000000   0.0000000   0.0000000   0.0000000
 AtZNuc=   6.0000000   6.0000000   1.0000000   6.0000000   6.0000000   6.0000000   6.0000000   6.0000000   6.0000000   6.0000000

  Atom        71          72          73          74          75          76          77          78          79          80
 IAtWgt=          12          12           1           1          12           1           1           1          32          16
 AtmWgt=  12.0000000  12.0000000   1.0078250   1.0078250  12.0000000   1.0078250   1.0078250   1.0078250  31.9720718  15.9949146
 NucSpn=           0           0           1           1           0           1           1           1           0           0
 AtZEff=   0.0000000   0.0000000   0.0000000   0.0000000   0.0000000   0.0000000   0.0000000   0.0000000   0.0000000   0.0000000
 NQMom=    0.0000000   0.0000000   0.0000000   0.0000000   0.0000000   0.0000000   0.0000000   0.0000000   0.0000000   0.0000000
 NMagM=    0.0000000   0.0000000   2.7928460   2.7928460   0.0000000   2.7928460   2.7928460   2.7928460   0.0000000   0.0000000
 AtZNuc=   6.0000000   6.0000000   1.0000000   1.0000000   6.0000000   1.0000000   1.0000000   1.0000000  16.0000000   8.0000000

  Atom        81          82          83          84          85          86          87
 IAtWgt=          16          32          16          16          14           1           1
 AtmWgt=  15.9949146  31.9720718  15.9949146  15.9949146  14.0030740   1.0078250   1.0078250
 NucSpn=           0           0           0           0           2           1           1
 AtZEff=   0.0000000   0.0000000   0.0000000   0.0000000   0.0000000   0.0000000   0.0000000
 NQMom=    0.0000000   0.0000000   0.0000000   0.0000000   2.0440000   0.0000000   0.0000000
 NMagM=    0.0000000   0.0000000   0.0000000   0.0000000   0.4037610   2.7928460   2.7928460
 AtZNuc=   8.0000000  16.0000000   8.0000000   8.0000000   7.0000000   1.0000000   1.0000000
 Leave Link  101 at Tue Jun 11 20:58:41 2024, MaxMem=  8589934592 cpu:               1.6 elap:               0.1
 (Enter /opt/packages/gaussian/g16RevC.01/g16/l202.exe)
 Symmetry turned off by external request.
 Stoichiometry    C42H33FIN3O5S2
 Framework group  C1[X(C42H33FIN3O5S2)]
 Deg. of freedom   255
 Full point group                 C1      NOp   1
                          Input orientation:                          
 ---------------------------------------------------------------------
 Center     Atomic      Atomic             Coordinates (Angstroms)
 Number     Number       Type             X           Y           Z
 ---------------------------------------------------------------------
      1          6           0        1.679209   -1.816850   -0.318325
      2          6           0        0.322659   -2.189625   -0.828615
      3          6           0       -0.534854   -2.920176    0.138119
      4          6           0       -0.015748   -3.301465    1.325378
      5          6           0        1.385536   -3.065505    1.603109
      6          7           0        2.155931   -2.286677    0.781778
      7          1           0       -0.654488   -3.802863    2.047094
      8          6           0        2.548384   -0.891591   -1.097196
      9          6           0        3.962675   -1.020819   -1.115190
     10          6           0        4.733409   -0.054999   -1.771015
     11          6           0        2.765109    1.167152   -2.423037
     12          6           0        4.146517    1.031506   -2.416378
     13          1           0        5.816795   -0.178467   -1.794035
     14          1           0        4.769700    1.768323   -2.924980
     15          1           0        2.253848    1.997032   -2.911746
     16          6           0        1.998441    0.210352   -1.772581
     17          6           0        4.701819   -2.170254   -0.516248
     18          6           0        5.775534   -1.926413    0.348451
     19          6           0        4.397303   -3.494494   -0.861495
     20          6           0        6.522756   -2.984556    0.869935
     21          1           0        6.019006   -0.898515    0.625301
     22          6           0        5.144559   -4.548909   -0.343936
     23          1           0        3.570989   -3.694728   -1.547868
     24          6           0        6.210373   -4.298049    0.525039
     25          1           0        7.353007   -2.777156    1.547539
     26          1           0        4.900015   -5.574449   -0.627322
     27          1           0        6.795534   -5.126573    0.928362
     28          9           0        0.680828    0.401521   -1.782679
     29          6           0       -1.954461   -3.185141   -0.237344
     30          1           0       -2.424551   -2.259566   -0.602752
     31          1           0       -1.997443   -3.928399   -1.049009
     32          1           0       -2.521185   -3.568189    0.620026
     33          6           0        1.339253   -4.331582    3.728353
     34          6           0        3.429772   -3.389488    2.916603
     35          6           0        2.075489   -5.651019    3.932262
     36          1           0        0.287877   -4.518277    3.502393
     37          1           0        1.399980   -3.728100    4.647071
     38          6           0        4.061332   -4.756282    3.153882
     39          1           0        3.892936   -2.883691    2.064619
     40          1           0        3.535396   -2.767558    3.819050
     41          1           0        1.956298   -6.278528    3.028321
     42          1           0        1.633393   -6.180432    4.785966
     43          1           0        4.004535   -5.351938    2.223445
     44          1           0        5.118447   -4.624249    3.418810
     45          7           0        1.991175   -3.561461    2.665647
     46          8           0        3.432317   -5.437282    4.209690
     47         53           0        0.640441   -3.395660   -2.608823
     48          1           0       -0.224819   -1.322862   -1.212035
     49          6           0       -1.900005    6.688815   -1.346198
     50          6           0       -2.223843    5.497663   -0.743179
     51          6           0       -1.212334    4.563125   -0.376703
     52          6           0        0.145276    4.883417   -0.678109
     53          6           0        0.449386    6.131347   -1.290409
     54          6           0       -0.547688    7.017136   -1.614485
     55          1           0       -2.691379    7.385928   -1.626152
     56          1           0       -3.269787    5.254850   -0.554220
     57          6           0       -1.517854    3.309984    0.255023
     58          6           0        1.170391    3.946302   -0.377969
     59          1           0        1.494684    6.363631   -1.504975
     60          1           0       -0.304887    7.969555   -2.088635
     61          6           0        0.857727    2.725082    0.158969
     62          6           0       -0.487618    2.409823    0.462543
     63          1           0        2.207467    4.206362   -0.600957
     64          6           0       -2.926980    3.000481    0.655936
     65          6           0       -3.622532    1.930819    0.119966
     66          6           0       -3.574629    3.805046    1.654454
     67          6           0       -4.962755    1.650263    0.474460
     68          6           0       -4.933568    3.534435    1.996740
     69          6           0       -2.901965    4.855062    2.345238
     70          6           0       -5.612262    2.451288    1.376730
     71          6           0       -5.582673    4.340904    2.973240
     72          6           0       -3.552159    5.608190    3.292418
     73          1           0       -1.852605    5.053494    2.126856
     74          1           0       -6.652034    2.255921    1.646623
     75          6           0       -4.911763    5.358104    3.604530
     76          1           0       -6.625504    4.124796    3.214820
     77          1           0       -3.015251    6.402640    3.813296
     78          1           0       -5.417110    5.968414    4.354864
     79         16           0       -0.840803    0.764067    1.048850
     80          8           0       -1.544958    0.895361    2.290402
     81          8           0        0.418703    0.064834    1.111093
     82         16           0       -2.796487    0.791611   -0.974143
     83          8           0       -2.209270    1.564473   -2.027920
     84          8           0       -3.753548   -0.204383   -1.366607
     85          7           0       -1.713239    0.078901   -0.069573
     86          1           0       -5.453913    0.795144    0.010761
     87          1           0        1.626296    1.981442    0.370996
 ---------------------------------------------------------------------
 Rotational constants (GHZ):           0.0739502           0.0293342           0.0279846
 Leave Link  202 at Tue Jun 11 20:58:41 2024, MaxMem=  8589934592 cpu:               0.1 elap:               0.0
 (Enter /opt/packages/gaussian/g16RevC.01/g16/l301.exe)
 Standard basis: def2TZVPP (5D, 7F)
 Ernie: Thresh=  0.10000D-02 Tol=  0.10000D-05 Strict=F.
  2177 basis functions,  3409 primitive gaussians,  2486 cartesian basis functions
   206 alpha electrons      206 beta electrons
       nuclear repulsion energy      8829.3276296496 Hartrees.
 IExCor=  402 DFT=T Ex+Corr=B3LYP ExCW=0 ScaHFX=  0.200000
 ScaDFX=  0.800000  0.720000  1.000000  0.810000 ScalE2=  1.000000  1.000000
 IRadAn=      5 IRanWt=     -1 IRanGd=            0 ICorTp=0 IEmpDi=141
 NAtoms=   87 NActive=   87 NUniq=   87 SFac= 1.00D+00 NAtFMM=   60 NAOKFM=T Big=T
 Integral buffers will be    131072 words long.
 Raffenetti 2 integral format.
 Two-electron integral symmetry is turned off.
 R6Disp:  Grimme-D3(BJ) Dispersion energy=       -0.2775789597 Hartrees.
 Nuclear repulsion after empirical dispersion term =     8829.0500506900 Hartrees.
 ------------------------------------------------------------------------------
 Polarizable Continuum Model (PCM)
 =================================
 Model                : PCM.
 Atomic radii         : SMD-Coulomb.
 Polarization charges : Total charges.
 Charge compensation  : None.
 Solution method      : On-the-fly selection.
 Cavity type          : VdW (van der Waals Surface) (Alpha=1.000).
 Cavity algorithm     : GePol (No added spheres)
                        Default sphere list used, NSphG=   87.
                        Lebedev-Laikov grids with approx.  5.0 points / Ang**2.
                        Smoothing algorithm: York/Karplus (Gamma=1.0000).
                        Polarization charges: spherical gaussians, with
                                              point-specific exponents (IZeta= 3).
                        Self-potential: point-specific (ISelfS= 7).
                        Self-field    : sphere-specific E.n sum rule (ISelfD= 2).
 Solvent              : PropylEthanoate, Eps=   5.520500 Eps(inf)=   1.916010
 ------------------------------------------------------------------------------
 GePol: Number of generator spheres                  =      87
 GePol: Total number of spheres                      =      87
 GePol: Number of exposed spheres                    =      87 (100.00%)
 GePol: Number of points                             =    6329
 GePol: Average weight of points                     =       0.11
 GePol: Minimum weight of points                     =   0.11D-11
 GePol: Maximum weight of points                     =    0.21501
 GePol: Number of points with low weight             =     406
 GePol: Fraction of low-weight points (<1% of avg)   =       6.41%
 GePol: Cavity surface area                          =    698.427 Ang**2
 GePol: Cavity volume                                =    786.972 Ang**3
 ------------------------------------------------------------------------------
 Atomic radii for non-electrostatic terms: SMD-CDS.
 ------------------------------------------------------------------------------
 PCM non-electrostatic energy =        -0.0202461250 Hartrees.
 Nuclear repulsion after PCM non-electrostatic terms =     8829.0298045649 Hartrees.
 Leave Link  301 at Tue Jun 11 20:58:42 2024, MaxMem=  8589934592 cpu:               3.2 elap:               0.1
 (Enter /opt/packages/gaussian/g16RevC.01/g16/l302.exe)
 NPDir=0 NMtPBC=     1 NCelOv=     1 NCel=       1 NClECP=     1 NCelD=      1
         NCelK=      1 NCelE2=     1 NClLst=     1 CellRange=     0.0.
 One-electron integrals computed using PRISM.
   1 Symmetry operations used in ECPInt.
 ECPInt:  NShTT=  322806 NPrTT=  939091 LenC2=  219918 LenP2D=  424200.
 LDataN:  DoStor=T MaxTD1= 7 Len=  274
 Number of processors reduced to  23 by ecpmxn.
 NBasis=  2177 RedAO= T EigKep=  2.69D-06  NBF=  2177
 NBsUse=  2177 1.00D-06 EigRej= -1.00D+00 NBFU=  2177
 Precomputing XC quadrature grid using
 IXCGrd= 4 IRadAn=           5 IRanWt=          -1 IRanGd=           0 AccXCQ= 0.00D+00.
 Defaulting to unpruned grid for atomic number  53.
 Generated NRdTot=       0 NPtTot=           0 NUsed=           0 NTot=          32
 NSgBfM=  2286  2269  2280  2286  2286 MxSgAt=    87 MxSgA2=    87.
 Leave Link  302 at Tue Jun 11 20:58:53 2024, MaxMem=  8589934592 cpu:             330.7 elap:              11.1
 (Enter /opt/packages/gaussian/g16RevC.01/g16/l303.exe)
 DipDrv:  MaxL=1.
 Leave Link  303 at Tue Jun 11 20:58:53 2024, MaxMem=  8589934592 cpu:              16.8 elap:               0.7
 (Enter /opt/packages/gaussian/g16RevC.01/g16/l401.exe)
 ExpMin= 7.49D-02 ExpMax= 6.07D+04 ExpMxC= 2.07D+03 IAcc=3 IRadAn=         5 AccDes= 0.00D+00
 Harris functional with IExCor=  402 and IRadAn=       5 diagonalized for initial guess.
 HarFok:  IExCor=  402 AccDes= 0.00D+00 IRadAn=         5 IDoV= 1 UseB2=F ITyADJ=14
 ICtDFT=  3500011 ScaDFX=  1.000000  1.000000  1.000000  1.000000
 Defaulting to unpruned grid for atomic number  53.
 FoFCou: FMM=F IPFlag=           0 FMFlag=      100000 FMFlg1=        2001
         NFxFlg=           0 DoJE=T BraDBF=F KetDBF=T FulRan=T
         wScrn=  0.000000 ICntrl=       500 IOpCl=  0 I1Cent=   200000004 NGrid=           0
         NMat0=    1 NMatS0=      1 NMatT0=    0 NMatD0=    1 NMtDS0=    0 NMtDT0=    0
 Symmetry not used in FoFCou.
 Harris En= -3355.92976729184    
 JPrj=0 DoOrth=F DoCkMO=F.
 Leave Link  401 at Tue Jun 11 20:59:07 2024, MaxMem=  8589934592 cpu:             444.9 elap:              14.0
 (Enter /opt/packages/gaussian/g16RevC.01/g16/l502.exe)
 Two-electron integral symmetry not used.
 Closed shell SCF:
 Using DIIS extrapolation, IDIIS=  1040.
 NGot=  8589934592 LenX=  8577477354 LenY=  8571294672
 Requested convergence on RMS density matrix=1.00D-08 within 128 cycles.
 Requested convergence on MAX density matrix=1.00D-06.
 Requested convergence on             energy=1.00D-06.
 No special actions if energy rises.
 Fock matrices will be formed incrementally for  20 cycles.

 Cycle   1  Pass 1  IDiag  1:
 FoFJK:  IHMeth= 1 ICntrl=       0 DoSepK=F KAlg= 0 I1Cent=           0 FoldK=F
 IRaf= 650000000 NMat=       1 IRICut=       1 DoRegI=T DoRafI=F ISym2E= 0 IDoP0=0 IntGTp=1.
 FoFCou: FMM=T IPFlag=           0 FMFlag=      100000 FMFlg1=        2001
         NFxFlg=           0 DoJE=F BraDBF=F KetDBF=F FulRan=T
         wScrn=  0.000000 ICntrl=         0 IOpCl=  0 I1Cent=           0 NGrid=           0
         NMat0=    1 NMatS0=      1 NMatT0=    0 NMatD0=    1 NMtDS0=    0 NMtDT0=    0
 Symmetry not used in FoFCou.
 FMM levels:  10  Number of levels for PrismC:   9
 Defaulting to unpruned grid for atomic number  53.
 Defaulting to unpruned grid for atomic number  53.
 Defaulting to unpruned grid for atomic number  53.
 Defaulting to unpruned grid for atomic number  53.
 Defaulting to unpruned grid for atomic number  53.
 Defaulting to unpruned grid for atomic number  53.
 Defaulting to unpruned grid for atomic number  53.
 Defaulting to unpruned grid for atomic number  53.
 Defaulting to unpruned grid for atomic number  53.
 Defaulting to unpruned grid for atomic number  53.
 Defaulting to unpruned grid for atomic number  53.
 Defaulting to unpruned grid for atomic number  53.
 Defaulting to unpruned grid for atomic number  53.
 Defaulting to unpruned grid for atomic number  53.
 Defaulting to unpruned grid for atomic number  53.
 Defaulting to unpruned grid for atomic number  53.
 Defaulting to unpruned grid for atomic number  53.
 Defaulting to unpruned grid for atomic number  53.
 Defaulting to unpruned grid for atomic number  53.
 Defaulting to unpruned grid for atomic number  53.
 Defaulting to unpruned grid for atomic number  53.
 Defaulting to unpruned grid for atomic number  53.
 Defaulting to unpruned grid for atomic number  53.
 Defaulting to unpruned grid for atomic number  53.
 Defaulting to unpruned grid for atomic number  53.
 Defaulting to unpruned grid for atomic number  53.
 Defaulting to unpruned grid for atomic number  53.
 Defaulting to unpruned grid for atomic number  53.
 Defaulting to unpruned grid for atomic number  53.
 Defaulting to unpruned grid for atomic number  53.
 Defaulting to unpruned grid for atomic number  53.
 Defaulting to unpruned grid for atomic number  53.
 Inv3:  Mode=1 IEnd=   120168723.
 Iteration    1 A*A^-1 deviation from unit magnitude is 3.55D-15 for   1118.
 Iteration    1 A*A^-1 deviation from orthogonality  is 2.45D-15 for   2166   1654.
 Iteration    1 A^-1*A deviation from unit magnitude is 3.55D-15 for    122.
 Iteration    1 A^-1*A deviation from orthogonality  is 4.01D-13 for   5475   5331.
 E= -3354.43571443758    
 DIIS: error= 1.20D-02 at cycle   1 NSaved=   1.
 NSaved= 1 IEnMin= 1 EnMin= -3354.43571443758     IErMin= 1 ErrMin= 1.20D-02
 ErrMax= 1.20D-02  0.00D+00 EMaxC= 1.00D-01 BMatC= 1.86D+00 BMatP= 1.86D+00
 IDIUse=3 WtCom= 8.80D-01 WtEn= 1.20D-01
 Coeff-Com:  0.100D+01
 Coeff-En:   0.100D+01
 Coeff:      0.100D+01
 Gap=     0.343 Goal=   None    Shift=    0.000
 GapD=    0.343 DampG=1.000 DampE=0.500 DampFc=0.5000 IDamp=-1.
 Damping current iteration by 5.00D-01
 RMSDP=3.96D-03 MaxDP=1.51D+00              OVMax= 2.59D-01

 Cycle   2  Pass 1  IDiag  1:
 RMSU=  1.95D-03    CP:  1.07D+00
 E= -3354.85769656797     Delta-E=       -0.421982130390 Rises=F Damp=T
 DIIS: error= 5.87D-03 at cycle   2 NSaved=   2.
 NSaved= 2 IEnMin= 2 EnMin= -3354.85769656797     IErMin= 2 ErrMin= 5.87D-03
 ErrMax= 5.87D-03  0.00D+00 EMaxC= 1.00D-01 BMatC= 2.66D-01 BMatP= 1.86D+00
 IDIUse=3 WtCom= 9.41D-01 WtEn= 5.87D-02
 Coeff-Com:  0.191D+00 0.809D+00
 Coeff-En:   0.325D+00 0.675D+00
 Coeff:      0.199D+00 0.801D+00
 Gap=     0.087 Goal=   None    Shift=    0.000
 RMSDP=1.16D-03 MaxDP=3.41D-01 DE=-4.22D-01 OVMax= 1.96D-01

 Cycle   3  Pass 1  IDiag  1:
 RMSU=  9.36D-04    CP:  1.04D+00  6.58D-01
 E= -3355.67517692101     Delta-E=       -0.817480353036 Rises=F Damp=F
 DIIS: error= 6.41D-03 at cycle   3 NSaved=   3.
 NSaved= 3 IEnMin= 3 EnMin= -3355.67517692101     IErMin= 2 ErrMin= 5.87D-03
 ErrMax= 6.41D-03  0.00D+00 EMaxC= 1.00D-01 BMatC= 2.64D-01 BMatP= 2.66D-01
 IDIUse=3 WtCom= 9.36D-01 WtEn= 6.41D-02
 Coeff-Com:  0.273D-01 0.497D+00 0.476D+00
 Coeff-En:   0.000D+00 0.000D+00 0.100D+01
 Coeff:      0.255D-01 0.465D+00 0.509D+00
 Gap=     0.122 Goal=   None    Shift=    0.000
 RMSDP=8.75D-04 MaxDP=1.63D-01 DE=-8.17D-01 OVMax= 1.09D-01

 Cycle   4  Pass 1  IDiag  1:
 RMSU=  4.63D-04    CP:  1.02D+00  5.17D-01  2.70D-01
 E= -3355.86999988096     Delta-E=       -0.194822959944 Rises=F Damp=F
 DIIS: error= 2.10D-03 at cycle   4 NSaved=   4.
 NSaved= 4 IEnMin= 4 EnMin= -3355.86999988096     IErMin= 4 ErrMin= 2.10D-03
 ErrMax= 2.10D-03  0.00D+00 EMaxC= 1.00D-01 BMatC= 3.64D-02 BMatP= 2.64D-01
 IDIUse=3 WtCom= 9.79D-01 WtEn= 2.10D-02
 Coeff-Com: -0.123D-01 0.150D+00 0.304D+00 0.558D+00
 Coeff-En:   0.000D+00 0.000D+00 0.142D+00 0.858D+00
 Coeff:     -0.120D-01 0.147D+00 0.301D+00 0.564D+00
 Gap=     0.103 Goal=   None    Shift=    0.000
 RMSDP=2.82D-04 MaxDP=8.76D-02 DE=-1.95D-01 OVMax= 5.43D-02

 Cycle   5  Pass 1  IDiag  1:
 RMSU=  1.07D-04    CP:  1.03D+00  5.73D-01  4.76D-01  7.14D-01
 E= -3355.90101910991     Delta-E=       -0.031019228953 Rises=F Damp=F
 DIIS: error= 7.24D-04 at cycle   5 NSaved=   5.
 NSaved= 5 IEnMin= 5 EnMin= -3355.90101910991     IErMin= 5 ErrMin= 7.24D-04
 ErrMax= 7.24D-04  0.00D+00 EMaxC= 1.00D-01 BMatC= 3.57D-03 BMatP= 3.64D-02
 IDIUse=3 WtCom= 9.93D-01 WtEn= 7.24D-03
 Coeff-Com: -0.105D-01 0.366D-01 0.118D+00 0.324D+00 0.533D+00
 Coeff-En:   0.000D+00 0.000D+00 0.000D+00 0.541D-01 0.946D+00
 Coeff:     -0.104D-01 0.364D-01 0.117D+00 0.322D+00 0.536D+00
 Gap=     0.101 Goal=   None    Shift=    0.000
 RMSDP=5.50D-05 MaxDP=1.16D-02 DE=-3.10D-02 OVMax= 2.02D-02

 Cycle   6  Pass 1  IDiag  1:
 RMSU=  3.43D-05    CP:  1.03D+00  5.66D-01  4.52D-01  7.51D-01  7.28D-01
 E= -3355.90421115674     Delta-E=       -0.003192046834 Rises=F Damp=F
 DIIS: error= 3.06D-04 at cycle   6 NSaved=   6.
 NSaved= 6 IEnMin= 6 EnMin= -3355.90421115674     IErMin= 6 ErrMin= 3.06D-04
 ErrMax= 3.06D-04  0.00D+00 EMaxC= 1.00D-01 BMatC= 3.87D-04 BMatP= 3.57D-03
 IDIUse=3 WtCom= 9.97D-01 WtEn= 3.06D-03
 Coeff-Com: -0.454D-02 0.660D-02 0.355D-01 0.125D+00 0.310D+00 0.528D+00
 Coeff-En:   0.000D+00 0.000D+00 0.000D+00 0.000D+00 0.602D-01 0.940D+00
 Coeff:     -0.452D-02 0.658D-02 0.354D-01 0.124D+00 0.309D+00 0.529D+00
 Gap=     0.100 Goal=   None    Shift=    0.000
 RMSDP=2.54D-05 MaxDP=7.15D-03 DE=-3.19D-03 OVMax= 7.47D-03

 Cycle   7  Pass 1  IDiag  1:
 RMSU=  1.49D-05    CP:  1.03D+00  5.74D-01  4.62D-01  7.41D-01  8.02D-01
                    CP:  8.30D-01
 E= -3355.90453845329     Delta-E=       -0.000327296544 Rises=F Damp=F
 DIIS: error= 1.03D-04 at cycle   7 NSaved=   7.
 NSaved= 7 IEnMin= 7 EnMin= -3355.90453845329     IErMin= 7 ErrMin= 1.03D-04
 ErrMax= 1.03D-04  0.00D+00 EMaxC= 1.00D-01 BMatC= 6.09D-05 BMatP= 3.87D-04
 IDIUse=3 WtCom= 9.99D-01 WtEn= 1.03D-03
 Coeff-Com: -0.171D-02 0.516D-03 0.101D-01 0.443D-01 0.141D+00 0.342D+00
 Coeff-Com:  0.464D+00
 Coeff-En:   0.000D+00 0.000D+00 0.000D+00 0.000D+00 0.000D+00 0.120D+00
 Coeff-En:   0.880D+00
 Coeff:     -0.171D-02 0.516D-03 0.101D-01 0.443D-01 0.141D+00 0.342D+00
 Coeff:      0.464D+00
 Gap=     0.101 Goal=   None    Shift=    0.000
 RMSDP=7.96D-06 MaxDP=1.98D-03 DE=-3.27D-04 OVMax= 2.61D-03

 Cycle   8  Pass 1  IDiag  1:
 RMSU=  5.00D-06    CP:  1.03D+00  5.73D-01  4.59D-01  7.45D-01  7.86D-01
                    CP:  7.85D-01  6.82D-01
 E= -3355.90459667101     Delta-E=       -0.000058217720 Rises=F Damp=F
 DIIS: error= 2.23D-05 at cycle   8 NSaved=   8.
 NSaved= 8 IEnMin= 8 EnMin= -3355.90459667101     IErMin= 8 ErrMin= 2.23D-05
 ErrMax= 2.23D-05  0.00D+00 EMaxC= 1.00D-01 BMatC= 3.82D-06 BMatP= 6.09D-05
 IDIUse=1 WtCom= 1.00D+00 WtEn= 0.00D+00
 Coeff-Com: -0.341D-03-0.520D-03 0.107D-02 0.896D-02 0.403D-01 0.123D+00
 Coeff-Com:  0.248D+00 0.580D+00
 Coeff:     -0.341D-03-0.520D-03 0.107D-02 0.896D-02 0.403D-01 0.123D+00
 Coeff:      0.248D+00 0.580D+00
 Gap=     0.101 Goal=   None    Shift=    0.000
 RMSDP=2.57D-06 MaxDP=9.42D-04 DE=-5.82D-05 OVMax= 5.37D-04

 Cycle   9  Pass 1  IDiag  1:
 RMSU=  1.26D-06    CP:  1.03D+00  5.72D-01  4.59D-01  7.46D-01  7.88D-01
                    CP:  8.01D-01  7.14D-01  7.57D-01
 E= -3355.90459983852     Delta-E=       -0.000003167519 Rises=F Damp=F
 DIIS: error= 6.73D-06 at cycle   9 NSaved=   9.
 NSaved= 9 IEnMin= 9 EnMin= -3355.90459983852     IErMin= 9 ErrMin= 6.73D-06
 ErrMax= 6.73D-06  0.00D+00 EMaxC= 1.00D-01 BMatC= 5.69D-07 BMatP= 3.82D-06
 IDIUse=1 WtCom= 1.00D+00 WtEn= 0.00D+00
 Coeff-Com:  0.389D-06-0.295D-03-0.550D-03-0.285D-03 0.633D-02 0.300D-01
 Coeff-Com:  0.823D-01 0.327D+00 0.555D+00
 Coeff:      0.389D-06-0.295D-03-0.550D-03-0.285D-03 0.633D-02 0.300D-01
 Coeff:      0.823D-01 0.327D+00 0.555D+00
 Gap=     0.101 Goal=   None    Shift=    0.000
 RMSDP=5.65D-07 MaxDP=1.30D-04 DE=-3.17D-06 OVMax= 1.33D-04

 Cycle  10  Pass 1  IDiag  1:
 RMSU=  4.29D-07    CP:  1.03D+00  5.72D-01  4.59D-01  7.46D-01  7.88D-01
                    CP:  8.00D-01  7.04D-01  7.99D-01  8.21D-01
 E= -3355.90460033396     Delta-E=       -0.000000495440 Rises=F Damp=F
 DIIS: error= 2.25D-06 at cycle  10 NSaved=  10.
 NSaved=10 IEnMin=10 EnMin= -3355.90460033396     IErMin=10 ErrMin= 2.25D-06
 ErrMax= 2.25D-06  0.00D+00 EMaxC= 1.00D-01 BMatC= 5.28D-08 BMatP= 5.69D-07
 IDIUse=1 WtCom= 1.00D+00 WtEn= 0.00D+00
 Coeff-Com:  0.160D-04-0.114D-03-0.362D-03-0.779D-03 0.710D-03 0.748D-02
 Coeff-Com:  0.249D-01 0.130D+00 0.308D+00 0.531D+00
 Coeff:      0.160D-04-0.114D-03-0.362D-03-0.779D-03 0.710D-03 0.748D-02
 Coeff:      0.249D-01 0.130D+00 0.308D+00 0.531D+00
 Gap=     0.101 Goal=   None    Shift=    0.000
 RMSDP=5.88D-07 MaxDP=1.62D-04 DE=-4.95D-07 OVMax= 5.54D-05

 Cycle  11  Pass 1  IDiag  1:
 RMSU=  1.76D-07    CP:  1.03D+00  5.73D-01  4.59D-01  7.46D-01  7.89D-01
                    CP:  8.02D-01  7.16D-01  8.20D-01  8.21D-01  6.29D-01
 E= -3355.90460038127     Delta-E=       -0.000000047305 Rises=F Damp=F
 DIIS: error= 6.94D-07 at cycle  11 NSaved=  11.
 NSaved=11 IEnMin=11 EnMin= -3355.90460038127     IErMin=11 ErrMin= 6.94D-07
 ErrMax= 6.94D-07  0.00D+00 EMaxC= 1.00D-01 BMatC= 5.33D-09 BMatP= 5.28D-08
 IDIUse=1 WtCom= 1.00D+00 WtEn= 0.00D+00
 Coeff-Com:  0.778D-05-0.154D-04-0.149D-03-0.463D-03-0.630D-03-0.145D-03
 Coeff-Com:  0.192D-02 0.261D-01 0.936D-01 0.279D+00 0.601D+00
 Coeff:      0.778D-05-0.154D-04-0.149D-03-0.463D-03-0.630D-03-0.145D-03
 Coeff:      0.192D-02 0.261D-01 0.936D-01 0.279D+00 0.601D+00
 Gap=     0.101 Goal=   None    Shift=    0.000
 RMSDP=1.23D-07 MaxDP=3.11D-05 DE=-4.73D-08 OVMax= 2.04D-05

 Cycle  12  Pass 1  IDiag  1:
 RMSU=  4.65D-08    CP:  1.03D+00  5.72D-01  4.59D-01  7.46D-01  7.89D-01
                    CP:  8.01D-01  7.14D-01  8.19D-01  8.35D-01  7.04D-01
                    CP:  8.20D-01
 E= -3355.90460038664     Delta-E=       -0.000000005375 Rises=F Damp=F
 DIIS: error= 3.08D-07 at cycle  12 NSaved=  12.
 NSaved=12 IEnMin=12 EnMin= -3355.90460038664     IErMin=12 ErrMin= 3.08D-07
 ErrMax= 3.08D-07  0.00D+00 EMaxC= 1.00D-01 BMatC= 6.78D-10 BMatP= 5.33D-09
 IDIUse=1 WtCom= 1.00D+00 WtEn= 0.00D+00
 Coeff-Com:  0.114D-05 0.528D-05-0.435D-04-0.163D-03-0.427D-03-0.884D-03
 Coeff-Com: -0.186D-02 0.143D-03 0.170D-01 0.902D-01 0.324D+00 0.572D+00
 Coeff:      0.114D-05 0.528D-05-0.435D-04-0.163D-03-0.427D-03-0.884D-03
 Coeff:     -0.186D-02 0.143D-03 0.170D-01 0.902D-01 0.324D+00 0.572D+00
 Gap=     0.101 Goal=   None    Shift=    0.000
 RMSDP=2.56D-08 MaxDP=3.45D-06 DE=-5.38D-09 OVMax= 6.77D-06

 Cycle  13  Pass 1  IDiag  1:
 RMSU=  1.89D-08    CP:  1.03D+00  5.72D-01  4.59D-01  7.46D-01  7.89D-01
                    CP:  8.02D-01  7.14D-01  8.19D-01  8.41D-01  7.05D-01
                    CP:  8.52D-01  8.28D-01
 E= -3355.90460038667     Delta-E=       -0.000000000029 Rises=F Damp=F
 DIIS: error= 1.07D-07 at cycle  13 NSaved=  13.
 NSaved=13 IEnMin=13 EnMin= -3355.90460038667     IErMin=13 ErrMin= 1.07D-07
 ErrMax= 1.07D-07  0.00D+00 EMaxC= 1.00D-01 BMatC= 1.13D-10 BMatP= 6.78D-10
 IDIUse=1 WtCom= 1.00D+00 WtEn= 0.00D+00
 Coeff-Com: -0.710D-06 0.569D-05-0.395D-05-0.255D-04-0.156D-03-0.470D-03
 Coeff-Com: -0.139D-02-0.373D-02-0.476D-02 0.749D-02 0.948D-01 0.341D+00
 Coeff-Com:  0.568D+00
 Coeff:     -0.710D-06 0.569D-05-0.395D-05-0.255D-04-0.156D-03-0.470D-03
 Coeff:     -0.139D-02-0.373D-02-0.476D-02 0.749D-02 0.948D-01 0.341D+00
 Coeff:      0.568D+00
 Gap=     0.101 Goal=   None    Shift=    0.000
 RMSDP=1.49D-08 MaxDP=3.95D-06 DE=-2.91D-11 OVMax= 2.58D-06

 Cycle  14  Pass 1  IDiag  1:
 RMSU=  7.14D-09    CP:  1.03D+00  5.72D-01  4.59D-01  7.46D-01  7.89D-01
                    CP:  8.02D-01  7.14D-01  8.19D-01  8.40D-01  7.11D-01
                    CP:  8.69D-01  8.83D-01  7.69D-01
 E= -3355.90460038700     Delta-E=       -0.000000000331 Rises=F Damp=F
 DIIS: error= 2.65D-08 at cycle  14 NSaved=  14.
 NSaved=14 IEnMin=14 EnMin= -3355.90460038700     IErMin=14 ErrMin= 2.65D-08
 ErrMax= 2.65D-08  0.00D+00 EMaxC= 1.00D-01 BMatC= 1.13D-11 BMatP= 1.13D-10
 IDIUse=1 WtCom= 1.00D+00 WtEn= 0.00D+00
 Coeff-Com: -0.513D-06 0.240D-05 0.269D-05 0.494D-05-0.387D-04-0.153D-03
 Coeff-Com: -0.562D-03-0.206D-02-0.477D-02-0.708D-02 0.134D-01 0.124D+00
 Coeff-Com:  0.311D+00 0.567D+00
 Coeff:     -0.513D-06 0.240D-05 0.269D-05 0.494D-05-0.387D-04-0.153D-03
 Coeff:     -0.562D-03-0.206D-02-0.477D-02-0.708D-02 0.134D-01 0.124D+00
 Coeff:      0.311D+00 0.567D+00
 Gap=     0.101 Goal=   None    Shift=    0.000
 RMSDP=5.29D-09 MaxDP=1.25D-06 DE=-3.31D-10 OVMax= 9.48D-07

 Cycle  15  Pass 1  IDiag  1:
 RMSU=  3.03D-09    CP:  1.03D+00  5.72D-01  4.59D-01  7.46D-01  7.89D-01
                    CP:  8.02D-01  7.14D-01  8.20D-01  8.41D-01  7.09D-01
                    CP:  8.79D-01  9.07D-01  7.94D-01  7.71D-01
 E= -3355.90460038682     Delta-E=        0.000000000187 Rises=F Damp=F
 DIIS: error= 1.36D-08 at cycle  15 NSaved=  15.
 NSaved=15 IEnMin=14 EnMin= -3355.90460038700     IErMin=15 ErrMin= 1.36D-08
 ErrMax= 1.36D-08  0.00D+00 EMaxC= 1.00D-01 BMatC= 2.16D-12 BMatP= 1.13D-11
 IDIUse=1 WtCom= 1.00D+00 WtEn= 0.00D+00
 Coeff-Com: -0.168D-06 0.594D-06 0.204D-05 0.604D-05-0.234D-05-0.236D-04
 Coeff-Com: -0.140D-03-0.671D-03-0.204D-02-0.487D-02-0.470D-02 0.266D-01
 Coeff-Com:  0.104D+00 0.344D+00 0.538D+00
 Coeff:     -0.168D-06 0.594D-06 0.204D-05 0.604D-05-0.234D-05-0.236D-04
 Coeff:     -0.140D-03-0.671D-03-0.204D-02-0.487D-02-0.470D-02 0.266D-01
 Coeff:      0.104D+00 0.344D+00 0.538D+00
 Gap=     0.101 Goal=   None    Shift=    0.000
 RMSDP=1.78D-09 MaxDP=3.75D-07 DE= 1.87D-10 OVMax= 3.40D-07

 Error on total polarization charges =  0.08059
 SCF Done:  E(RB3LYP) =  -3355.90460039     A.U. after   15 cycles
            NFock= 15  Conv=0.18D-08     -V/T= 2.0625
 KE= 3.158449803341D+03 PE=-2.545502119793D+04 EE= 1.011163698964D+04
 SMD-CDS (non-electrostatic) energy       (kcal/mol) =     -12.70
 (included in total energy above)
 Leave Link  502 at Tue Jun 11 21:41:14 2024, MaxMem=  8589934592 cpu:           80132.7 elap:            2526.5
 (Enter /opt/packages/gaussian/g16RevC.01/g16/l601.exe)
 Copying SCF densities to generalized density rwf, IOpCl= 0 IROHF=0.

 **********************************************************************

            Population analysis using the SCF Density.

 **********************************************************************

 Alpha  occ. eigenvalues --  -89.02553 -89.02337 -24.70196 -19.14460 -19.09185
 Alpha  occ. eigenvalues --  -19.08871 -19.08800 -19.08585 -14.40186 -14.33327
 Alpha  occ. eigenvalues --  -14.27838 -10.29704 -10.27409 -10.27280 -10.23525
 Alpha  occ. eigenvalues --  -10.23228 -10.22830 -10.22689 -10.22666 -10.21718
 Alpha  occ. eigenvalues --  -10.21020 -10.20934 -10.19937 -10.19870 -10.19763
 Alpha  occ. eigenvalues --  -10.19459 -10.19367 -10.19341 -10.19291 -10.18998
 Alpha  occ. eigenvalues --  -10.18995 -10.18786 -10.18716 -10.18638 -10.18413
 Alpha  occ. eigenvalues --  -10.18105 -10.18090 -10.18048 -10.17977 -10.17958
 Alpha  occ. eigenvalues --  -10.17838 -10.17753 -10.17733 -10.17668 -10.17641
 Alpha  occ. eigenvalues --  -10.17581 -10.17577 -10.17519 -10.17497 -10.17476
 Alpha  occ. eigenvalues --  -10.17431 -10.17409 -10.16774  -8.07111  -8.06882
 Alpha  occ. eigenvalues --   -6.84817  -6.03420  -6.03357  -6.03308  -6.03200
 Alpha  occ. eigenvalues --   -6.03119  -6.03082  -4.87348  -4.86042  -4.86026
 Alpha  occ. eigenvalues --   -1.92121  -1.91718  -1.91699  -1.90587  -1.90587
 Alpha  occ. eigenvalues --   -1.24532  -1.10724  -1.09182  -1.06680  -1.02335
 Alpha  occ. eigenvalues --   -0.98464  -0.98243  -0.96110  -0.89539  -0.88496
 Alpha  occ. eigenvalues --   -0.88260  -0.87283  -0.85910  -0.84873  -0.83269
 Alpha  occ. eigenvalues --   -0.82432  -0.81612  -0.79675  -0.79595  -0.78814
 Alpha  occ. eigenvalues --   -0.76637  -0.76361  -0.75109  -0.75042  -0.74859
 Alpha  occ. eigenvalues --   -0.74718  -0.73404  -0.73299  -0.71806  -0.71676
 Alpha  occ. eigenvalues --   -0.69138  -0.67906  -0.67190  -0.65597  -0.65271
 Alpha  occ. eigenvalues --   -0.64744  -0.63390  -0.62677  -0.62307  -0.61523
 Alpha  occ. eigenvalues --   -0.60901  -0.60874  -0.60455  -0.59447  -0.58262
 Alpha  occ. eigenvalues --   -0.57444  -0.56207  -0.55901  -0.54778  -0.53929
 Alpha  occ. eigenvalues --   -0.53871  -0.52414  -0.51947  -0.51326  -0.51107
 Alpha  occ. eigenvalues --   -0.50469  -0.50462  -0.50374  -0.49721  -0.49396
 Alpha  occ. eigenvalues --   -0.49174  -0.49019  -0.48275  -0.48087  -0.47167
 Alpha  occ. eigenvalues --   -0.46982  -0.46568  -0.46275  -0.46170  -0.45845
 Alpha  occ. eigenvalues --   -0.45437  -0.45224  -0.44874  -0.44651  -0.44419
 Alpha  occ. eigenvalues --   -0.43739  -0.43411  -0.43061  -0.42998  -0.42863
 Alpha  occ. eigenvalues --   -0.42503  -0.42420  -0.41989  -0.41521  -0.41388
 Alpha  occ. eigenvalues --   -0.41163  -0.41082  -0.40542  -0.39980  -0.39562
 Alpha  occ. eigenvalues --   -0.39510  -0.39013  -0.38787  -0.38688  -0.38264
 Alpha  occ. eigenvalues --   -0.37859  -0.37651  -0.37382  -0.37140  -0.36776
 Alpha  occ. eigenvalues --   -0.36703  -0.36403  -0.35247  -0.35159  -0.34931
 Alpha  occ. eigenvalues --   -0.34686  -0.34565  -0.34280  -0.33882  -0.33475
 Alpha  occ. eigenvalues --   -0.33017  -0.32787  -0.32382  -0.32200  -0.31998
 Alpha  occ. eigenvalues --   -0.30862  -0.30259  -0.29925  -0.29452  -0.29333
 Alpha  occ. eigenvalues --   -0.28865  -0.28337  -0.27972  -0.27890  -0.27018
 Alpha  occ. eigenvalues --   -0.26706  -0.26364  -0.26206  -0.26100  -0.25608
 Alpha  occ. eigenvalues --   -0.25216  -0.24961  -0.24181  -0.23527  -0.22341
 Alpha  occ. eigenvalues --   -0.21739
 Alpha virt. eigenvalues --   -0.11643  -0.06041  -0.05845  -0.04888  -0.03538
 Alpha virt. eigenvalues --   -0.02991  -0.02862  -0.02022  -0.01765  -0.00552
 Alpha virt. eigenvalues --    0.00247   0.00784   0.01990   0.03639   0.04633
 Alpha virt. eigenvalues --    0.04907   0.05278   0.05433   0.06012   0.06275
 Alpha virt. eigenvalues --    0.06744   0.06987   0.07148   0.07177   0.07310
 Alpha virt. eigenvalues --    0.07580   0.07715   0.07897   0.08258   0.08444
 Alpha virt. eigenvalues --    0.08710   0.08916   0.09339   0.09429   0.09511
 Alpha virt. eigenvalues --    0.09959   0.10151   0.10449   0.10587   0.10777
 Alpha virt. eigenvalues --    0.11186   0.11277   0.11402   0.11514   0.11723
 Alpha virt. eigenvalues --    0.11951   0.12183   0.12269   0.12694   0.12787
 Alpha virt. eigenvalues --    0.13265   0.13313   0.13751   0.13986   0.14091
 Alpha virt. eigenvalues --    0.14323   0.14355   0.14555   0.14856   0.14957
 Alpha virt. eigenvalues --    0.15262   0.15665   0.15784   0.15892   0.16007
 Alpha virt. eigenvalues --    0.16398   0.16506   0.16588   0.16991   0.17054
 Alpha virt. eigenvalues --    0.17233   0.17625   0.17948   0.18292   0.18429
 Alpha virt. eigenvalues --    0.18603   0.18937   0.19096   0.19234   0.19369
 Alpha virt. eigenvalues --    0.19536   0.19880   0.20287   0.20403   0.20497
 Alpha virt. eigenvalues --    0.20911   0.21102   0.21189   0.21291   0.21437
 Alpha virt. eigenvalues --    0.21689   0.21857   0.22259   0.22416   0.22769
 Alpha virt. eigenvalues --    0.22824   0.22958   0.23161   0.23203   0.23596
 Alpha virt. eigenvalues --    0.23652   0.23988   0.24271   0.24396   0.24452
 Alpha virt. eigenvalues --    0.24670   0.24850   0.24964   0.25193   0.25508
 Alpha virt. eigenvalues --    0.25834   0.26144   0.26554   0.26736   0.26960
 Alpha virt. eigenvalues --    0.27086   0.27270   0.27499   0.27627   0.27921
 Alpha virt. eigenvalues --    0.27931   0.28218   0.28446   0.28771   0.28899
 Alpha virt. eigenvalues --    0.29153   0.29422   0.29584   0.29709   0.29868
 Alpha virt. eigenvalues --    0.30055   0.30293   0.30480   0.30633   0.30691
 Alpha virt. eigenvalues --    0.31052   0.31251   0.31449   0.31740   0.31822
 Alpha virt. eigenvalues --    0.32116   0.32422   0.32554   0.32775   0.32948
 Alpha virt. eigenvalues --    0.33092   0.33514   0.33615   0.33677   0.33982
 Alpha virt. eigenvalues --    0.34229   0.34396   0.34605   0.34773   0.35053
 Alpha virt. eigenvalues --    0.35264   0.35589   0.35765   0.35915   0.36346
 Alpha virt. eigenvalues --    0.36465   0.36664   0.36839   0.36915   0.37018
 Alpha virt. eigenvalues --    0.37174   0.37303   0.37542   0.37581   0.37667
 Alpha virt. eigenvalues --    0.38045   0.38201   0.38280   0.38521   0.38869
 Alpha virt. eigenvalues --    0.39030   0.39095   0.39274   0.39477   0.39751
 Alpha virt. eigenvalues --    0.39867   0.40155   0.40233   0.40463   0.40602
 Alpha virt. eigenvalues --    0.40845   0.41001   0.41115   0.41307   0.41586
 Alpha virt. eigenvalues --    0.41701   0.41807   0.42006   0.42282   0.42530
 Alpha virt. eigenvalues --    0.42708   0.42812   0.42969   0.43121   0.43187
 Alpha virt. eigenvalues --    0.43264   0.43476   0.43772   0.43873   0.43910
 Alpha virt. eigenvalues --    0.44115   0.44311   0.44528   0.44743   0.44872
 Alpha virt. eigenvalues --    0.45025   0.45217   0.45471   0.45791   0.45872
 Alpha virt. eigenvalues --    0.45957   0.46115   0.46372   0.46520   0.46828
 Alpha virt. eigenvalues --    0.46912   0.47144   0.47439   0.47632   0.47760
 Alpha virt. eigenvalues --    0.47965   0.48057   0.48311   0.48372   0.48766
 Alpha virt. eigenvalues --    0.48988   0.49037   0.49230   0.49472   0.49739
 Alpha virt. eigenvalues --    0.50204   0.50454   0.50537   0.50704   0.51022
 Alpha virt. eigenvalues --    0.51124   0.51252   0.51518   0.51641   0.51978
 Alpha virt. eigenvalues --    0.52325   0.52331   0.52458   0.52883   0.53106
 Alpha virt. eigenvalues --    0.53200   0.53470   0.53790   0.53955   0.54264
 Alpha virt. eigenvalues --    0.54473   0.54741   0.55256   0.55357   0.55909
 Alpha virt. eigenvalues --    0.56090   0.56339   0.56827   0.56925   0.57368
 Alpha virt. eigenvalues --    0.57758   0.57939   0.58067   0.58439   0.58935
 Alpha virt. eigenvalues --    0.59042   0.59175   0.59460   0.59752   0.59904
 Alpha virt. eigenvalues --    0.60404   0.60450   0.60750   0.60973   0.61042
 Alpha virt. eigenvalues --    0.61394   0.61618   0.61893   0.61943   0.62158
 Alpha virt. eigenvalues --    0.62482   0.62895   0.63079   0.63188   0.63513
 Alpha virt. eigenvalues --    0.63747   0.64026   0.64234   0.64509   0.64559
 Alpha virt. eigenvalues --    0.64745   0.64946   0.65405   0.65774   0.65849
 Alpha virt. eigenvalues --    0.66049   0.66402   0.66782   0.67145   0.67158
 Alpha virt. eigenvalues --    0.67489   0.67778   0.67926   0.68143   0.68410
 Alpha virt. eigenvalues --    0.68556   0.68620   0.69060   0.69281   0.69454
 Alpha virt. eigenvalues --    0.69666   0.69715   0.69973   0.69988   0.70299
 Alpha virt. eigenvalues --    0.70527   0.70979   0.71174   0.71626   0.71656
 Alpha virt. eigenvalues --    0.71697   0.71982   0.72138   0.72329   0.72874
 Alpha virt. eigenvalues --    0.72967   0.73349   0.73489   0.73718   0.73961
 Alpha virt. eigenvalues --    0.74261   0.74361   0.74724   0.74836   0.74902
 Alpha virt. eigenvalues --    0.75146   0.75654   0.75775   0.75962   0.76150
 Alpha virt. eigenvalues --    0.76492   0.76893   0.77183   0.77286   0.77691
 Alpha virt. eigenvalues --    0.77810   0.77945   0.78061   0.78448   0.78505
 Alpha virt. eigenvalues --    0.78599   0.78993   0.79215   0.79698   0.79811
 Alpha virt. eigenvalues --    0.79922   0.80331   0.80601   0.80964   0.81101
 Alpha virt. eigenvalues --    0.81337   0.81689   0.82249   0.82359   0.82754
 Alpha virt. eigenvalues --    0.82806   0.83596   0.83842   0.83878   0.84215
 Alpha virt. eigenvalues --    0.84364   0.84435   0.84569   0.84868   0.85064
 Alpha virt. eigenvalues --    0.85129   0.85210   0.85859   0.86140   0.86235
 Alpha virt. eigenvalues --    0.86412   0.86684   0.86958   0.87204   0.87368
 Alpha virt. eigenvalues --    0.87682   0.88017   0.88142   0.88273   0.88507
 Alpha virt. eigenvalues --    0.88988   0.89206   0.89462   0.89538   0.89747
 Alpha virt. eigenvalues --    0.89984   0.90247   0.90588   0.90661   0.90928
 Alpha virt. eigenvalues --    0.91384   0.91847   0.91931   0.92158   0.92264
 Alpha virt. eigenvalues --    0.92446   0.92774   0.92878   0.93248   0.93627
 Alpha virt. eigenvalues --    0.93847   0.94120   0.94269   0.94432   0.94616
 Alpha virt. eigenvalues --    0.94990   0.95299   0.95338   0.95567   0.95819
 Alpha virt. eigenvalues --    0.96439   0.96532   0.96794   0.96983   0.97321
 Alpha virt. eigenvalues --    0.97421   0.97649   0.98058   0.98201   0.98361
 Alpha virt. eigenvalues --    0.98614   0.99091   0.99594   1.00170   1.00248
 Alpha virt. eigenvalues --    1.00424   1.00479   1.00560   1.00753   1.01212
 Alpha virt. eigenvalues --    1.01659   1.01883   1.02247   1.02425   1.02825
 Alpha virt. eigenvalues --    1.02977   1.03171   1.03269   1.03649   1.03938
 Alpha virt. eigenvalues --    1.04257   1.04752   1.04805   1.04979   1.05149
 Alpha virt. eigenvalues --    1.05347   1.06102   1.06350   1.06580   1.06703
 Alpha virt. eigenvalues --    1.06952   1.07302   1.07410   1.07610   1.08176
 Alpha virt. eigenvalues --    1.08547   1.08648   1.08958   1.09563   1.09685
 Alpha virt. eigenvalues --    1.09804   1.09996   1.10080   1.10414   1.10912
 Alpha virt. eigenvalues --    1.11093   1.11361   1.11547   1.11873   1.11969
 Alpha virt. eigenvalues --    1.12243   1.12866   1.12960   1.13090   1.13522
 Alpha virt. eigenvalues --    1.13694   1.13830   1.14453   1.14526   1.14695
 Alpha virt. eigenvalues --    1.14988   1.15176   1.15451   1.15653   1.16211
 Alpha virt. eigenvalues --    1.16253   1.16460   1.16613   1.16968   1.17293
 Alpha virt. eigenvalues --    1.17503   1.17858   1.18184   1.18460   1.18562
 Alpha virt. eigenvalues --    1.19005   1.19174   1.19497   1.20036   1.20268
 Alpha virt. eigenvalues --    1.20423   1.20601   1.21115   1.21302   1.21337
 Alpha virt. eigenvalues --    1.21743   1.21946   1.22129   1.22204   1.22537
 Alpha virt. eigenvalues --    1.22711   1.22864   1.23576   1.23634   1.24061
 Alpha virt. eigenvalues --    1.24420   1.24473   1.24967   1.25431   1.25505
 Alpha virt. eigenvalues --    1.25603   1.25841   1.26440   1.26708   1.26835
 Alpha virt. eigenvalues --    1.27022   1.27379   1.27585   1.27672   1.27852
 Alpha virt. eigenvalues --    1.28122   1.28194   1.28386   1.28515   1.28872
 Alpha virt. eigenvalues --    1.29113   1.29287   1.29621   1.29971   1.30448
 Alpha virt. eigenvalues --    1.30624   1.30763   1.30990   1.31370   1.31890
 Alpha virt. eigenvalues --    1.31911   1.31957   1.32470   1.32737   1.32913
 Alpha virt. eigenvalues --    1.32967   1.33350   1.33768   1.33850   1.33945
 Alpha virt. eigenvalues --    1.34284   1.34509   1.34594   1.34973   1.35032
 Alpha virt. eigenvalues --    1.35346   1.35514   1.35882   1.36239   1.36298
 Alpha virt. eigenvalues --    1.36863   1.37057   1.37208   1.37478   1.37784
 Alpha virt. eigenvalues --    1.37921   1.37989   1.38391   1.38721   1.38964
 Alpha virt. eigenvalues --    1.39195   1.39519   1.39805   1.40048   1.40155
 Alpha virt. eigenvalues --    1.40586   1.40922   1.41252   1.41517   1.41842
 Alpha virt. eigenvalues --    1.42024   1.42195   1.42519   1.42722   1.43189
 Alpha virt. eigenvalues --    1.43267   1.43465   1.43799   1.44095   1.44266
 Alpha virt. eigenvalues --    1.44465   1.44681   1.44968   1.45124   1.45531
 Alpha virt. eigenvalues --    1.45754   1.46048   1.46236   1.46437   1.46827
 Alpha virt. eigenvalues --    1.46997   1.47376   1.47613   1.48023   1.48067
 Alpha virt. eigenvalues --    1.48578   1.48616   1.49039   1.49134   1.49317
 Alpha virt. eigenvalues --    1.49486   1.49811   1.50039   1.50261   1.50427
 Alpha virt. eigenvalues --    1.50611   1.51247   1.51332   1.51571   1.52024
 Alpha virt. eigenvalues --    1.52465   1.52787   1.52823   1.52941   1.53490
 Alpha virt. eigenvalues --    1.53836   1.54282   1.54552   1.54747   1.55086
 Alpha virt. eigenvalues --    1.55131   1.55314   1.55752   1.56101   1.56434
 Alpha virt. eigenvalues --    1.56724   1.57248   1.57359   1.57601   1.57717
 Alpha virt. eigenvalues --    1.57903   1.58469   1.58825   1.58875   1.59511
 Alpha virt. eigenvalues --    1.59613   1.60222   1.60564   1.60897   1.61008
 Alpha virt. eigenvalues --    1.61297   1.61523   1.61778   1.62361   1.62729
 Alpha virt. eigenvalues --    1.62905   1.62970   1.63212   1.63380   1.63554
 Alpha virt. eigenvalues --    1.63730   1.64328   1.64480   1.64823   1.65166
 Alpha virt. eigenvalues --    1.65375   1.65514   1.65859   1.66284   1.66768
 Alpha virt. eigenvalues --    1.67106   1.67272   1.67640   1.67755   1.68048
 Alpha virt. eigenvalues --    1.68391   1.68625   1.68868   1.69039   1.69282
 Alpha virt. eigenvalues --    1.69496   1.70081   1.70333   1.70513   1.70617
 Alpha virt. eigenvalues --    1.71171   1.71385   1.71788   1.71928   1.72300
 Alpha virt. eigenvalues --    1.72490   1.72894   1.73524   1.73786   1.74064
 Alpha virt. eigenvalues --    1.74358   1.74457   1.74841   1.75116   1.75801
 Alpha virt. eigenvalues --    1.76042   1.76225   1.76567   1.76766   1.77007
 Alpha virt. eigenvalues --    1.77340   1.77425   1.77935   1.78332   1.78701
 Alpha virt. eigenvalues --    1.79265   1.79381   1.79529   1.80274   1.80319
 Alpha virt. eigenvalues --    1.80783   1.81052   1.81591   1.81821   1.82370
 Alpha virt. eigenvalues --    1.82747   1.83065   1.83222   1.84079   1.84430
 Alpha virt. eigenvalues --    1.85088   1.85297   1.85605   1.86143   1.86530
 Alpha virt. eigenvalues --    1.87410   1.87699   1.87819   1.88545   1.88751
 Alpha virt. eigenvalues --    1.88995   1.89506   1.89713   1.90222   1.91111
 Alpha virt. eigenvalues --    1.91642   1.91805   1.92114   1.92536   1.93350
 Alpha virt. eigenvalues --    1.93725   1.94151   1.94537   1.94710   1.94832
 Alpha virt. eigenvalues --    1.95007   1.95876   1.96147   1.96535   1.96760
 Alpha virt. eigenvalues --    1.97347   1.97545   1.97948   1.98422   1.99045
 Alpha virt. eigenvalues --    1.99347   1.99673   2.00207   2.00709   2.00875
 Alpha virt. eigenvalues --    2.01239   2.01599   2.02050   2.02775   2.03000
 Alpha virt. eigenvalues --    2.03225   2.03637   2.03731   2.04013   2.04519
 Alpha virt. eigenvalues --    2.04811   2.05175   2.05609   2.05807   2.06214
 Alpha virt. eigenvalues --    2.06385   2.06575   2.06783   2.07303   2.07477
 Alpha virt. eigenvalues --    2.07557   2.07989   2.08395   2.08530   2.08871
 Alpha virt. eigenvalues --    2.09255   2.09623   2.09974   2.10433   2.10755
 Alpha virt. eigenvalues --    2.10999   2.11542   2.12189   2.12584   2.13032
 Alpha virt. eigenvalues --    2.13465   2.13687   2.14478   2.14597   2.15198
 Alpha virt. eigenvalues --    2.15651   2.16051   2.16845   2.17039   2.17463
 Alpha virt. eigenvalues --    2.17791   2.18036   2.18956   2.20227   2.20568
 Alpha virt. eigenvalues --    2.20702   2.21540   2.21616   2.22293   2.22713
 Alpha virt. eigenvalues --    2.23227   2.23347   2.24013   2.24372   2.24696
 Alpha virt. eigenvalues --    2.25006   2.25668   2.25996   2.26334   2.26421
 Alpha virt. eigenvalues --    2.26941   2.27356   2.27869   2.28218   2.28627
 Alpha virt. eigenvalues --    2.29238   2.29399   2.29872   2.30105   2.30709
 Alpha virt. eigenvalues --    2.31492   2.32286   2.32759   2.32846   2.33277
 Alpha virt. eigenvalues --    2.33703   2.33971   2.34285   2.34441   2.34707
 Alpha virt. eigenvalues --    2.35103   2.35218   2.35595   2.35906   2.36172
 Alpha virt. eigenvalues --    2.36575   2.36893   2.37304   2.37538   2.37853
 Alpha virt. eigenvalues --    2.38140   2.38314   2.38612   2.39253   2.39531
 Alpha virt. eigenvalues --    2.39918   2.40284   2.40949   2.41330   2.41603
 Alpha virt. eigenvalues --    2.42258   2.42867   2.43012   2.43364   2.43726
 Alpha virt. eigenvalues --    2.44270   2.44757   2.44940   2.45546   2.45747
 Alpha virt. eigenvalues --    2.46822   2.47253   2.47633   2.48220   2.48618
 Alpha virt. eigenvalues --    2.49209   2.49755   2.50196   2.50934   2.50986
 Alpha virt. eigenvalues --    2.52043   2.53064   2.53535   2.54402   2.54752
 Alpha virt. eigenvalues --    2.55773   2.55977   2.56449   2.56708   2.57043
 Alpha virt. eigenvalues --    2.57408   2.57657   2.58449   2.58847   2.59721
 Alpha virt. eigenvalues --    2.59984   2.60388   2.60499   2.61172   2.61253
 Alpha virt. eigenvalues --    2.62062   2.62180   2.62880   2.63219   2.63598
 Alpha virt. eigenvalues --    2.63707   2.64333   2.64537   2.65239   2.65515
 Alpha virt. eigenvalues --    2.66026   2.66381   2.67067   2.67271   2.67362
 Alpha virt. eigenvalues --    2.68191   2.68459   2.68582   2.69052   2.69290
 Alpha virt. eigenvalues --    2.69943   2.70208   2.70301   2.70944   2.71261
 Alpha virt. eigenvalues --    2.71401   2.71451   2.71811   2.72149   2.72245
 Alpha virt. eigenvalues --    2.72943   2.73001   2.73298   2.73564   2.74041
 Alpha virt. eigenvalues --    2.74103   2.74433   2.74829   2.75120   2.75159
 Alpha virt. eigenvalues --    2.75857   2.75995   2.76111   2.76366   2.77199
 Alpha virt. eigenvalues --    2.77242   2.77388   2.77827   2.78023   2.78389
 Alpha virt. eigenvalues --    2.78774   2.79105   2.79500   2.79597   2.79737
 Alpha virt. eigenvalues --    2.80283   2.80347   2.80458   2.81351   2.81585
 Alpha virt. eigenvalues --    2.82169   2.82464   2.82485   2.82777   2.83213
 Alpha virt. eigenvalues --    2.83587   2.83747   2.84237   2.84611   2.84790
 Alpha virt. eigenvalues --    2.85076   2.85330   2.85547   2.85656   2.86305
 Alpha virt. eigenvalues --    2.86519   2.87018   2.87243   2.87759   2.88158
 Alpha virt. eigenvalues --    2.88204   2.88501   2.88701   2.89622   2.89822
 Alpha virt. eigenvalues --    2.90045   2.90419   2.90871   2.91155   2.91387
 Alpha virt. eigenvalues --    2.91498   2.91684   2.91736   2.92085   2.92342
 Alpha virt. eigenvalues --    2.92531   2.92995   2.93097   2.93554   2.93821
 Alpha virt. eigenvalues --    2.94068   2.94351   2.94746   2.95220   2.95601
 Alpha virt. eigenvalues --    2.95769   2.95964   2.96348   2.96747   2.96892
 Alpha virt. eigenvalues --    2.97145   2.97348   2.97461   2.97823   2.98062
 Alpha virt. eigenvalues --    2.98247   2.98432   2.98647   2.99205   2.99757
 Alpha virt. eigenvalues --    3.00240   3.00362   3.00660   3.00763   3.00978
 Alpha virt. eigenvalues --    3.01171   3.01337   3.01551   3.01651   3.01978
 Alpha virt. eigenvalues --    3.02284   3.02418   3.02596   3.02845   3.03093
 Alpha virt. eigenvalues --    3.03161   3.03403   3.03495   3.03731   3.04135
 Alpha virt. eigenvalues --    3.04245   3.04355   3.04536   3.04834   3.05009
 Alpha virt. eigenvalues --    3.05269   3.05437   3.05622   3.06005   3.06079
 Alpha virt. eigenvalues --    3.06403   3.06531   3.06637   3.07252   3.07623
 Alpha virt. eigenvalues --    3.07647   3.07774   3.07939   3.08072   3.08419
 Alpha virt. eigenvalues --    3.08795   3.08906   3.09037   3.09222   3.09404
 Alpha virt. eigenvalues --    3.09761   3.09798   3.10001   3.10232   3.10346
 Alpha virt. eigenvalues --    3.10859   3.11212   3.11486   3.11514   3.11927
 Alpha virt. eigenvalues --    3.12070   3.12243   3.12630   3.12867   3.13030
 Alpha virt. eigenvalues --    3.13252   3.13473   3.13758   3.13871   3.14246
 Alpha virt. eigenvalues --    3.14290   3.14526   3.14748   3.15033   3.15191
 Alpha virt. eigenvalues --    3.15528   3.15824   3.15975   3.16219   3.16288
 Alpha virt. eigenvalues --    3.16531   3.16876   3.17082   3.17189   3.17596
 Alpha virt. eigenvalues --    3.17962   3.18137   3.18414   3.18537   3.18817
 Alpha virt. eigenvalues --    3.18942   3.19386   3.19682   3.19773   3.20285
 Alpha virt. eigenvalues --    3.20470   3.20552   3.20880   3.21018   3.21386
 Alpha virt. eigenvalues --    3.21573   3.21680   3.22113   3.22288   3.22454
 Alpha virt. eigenvalues --    3.22602   3.22899   3.23120   3.23517   3.23861
 Alpha virt. eigenvalues --    3.24052   3.24192   3.24504   3.24577   3.24900
 Alpha virt. eigenvalues --    3.25171   3.25657   3.26010   3.26310   3.26573
 Alpha virt. eigenvalues --    3.26635   3.27170   3.27242   3.27481   3.28015
 Alpha virt. eigenvalues --    3.28154   3.28582   3.28671   3.29196   3.29564
 Alpha virt. eigenvalues --    3.29651   3.29885   3.30412   3.30624   3.30931
 Alpha virt. eigenvalues --    3.31175   3.31601   3.31711   3.31800   3.32411
 Alpha virt. eigenvalues --    3.32622   3.32964   3.33183   3.33581   3.34014
 Alpha virt. eigenvalues --    3.34089   3.34314   3.34422   3.34739   3.35100
 Alpha virt. eigenvalues --    3.35149   3.35415   3.35546   3.35885   3.36013
 Alpha virt. eigenvalues --    3.36394   3.36560   3.36728   3.36979   3.37158
 Alpha virt. eigenvalues --    3.37600   3.37716   3.38278   3.38411   3.38677
 Alpha virt. eigenvalues --    3.39043   3.39251   3.39299   3.39746   3.39849
 Alpha virt. eigenvalues --    3.39986   3.40414   3.40622   3.40795   3.41056
 Alpha virt. eigenvalues --    3.41313   3.41390   3.41634   3.41976   3.42301
 Alpha virt. eigenvalues --    3.42626   3.42722   3.42976   3.43300   3.43636
 Alpha virt. eigenvalues --    3.43810   3.44234   3.44521   3.44803   3.45077
 Alpha virt. eigenvalues --    3.45712   3.45835   3.45942   3.46126   3.46668
 Alpha virt. eigenvalues --    3.46785   3.47141   3.47317   3.47701   3.48031
 Alpha virt. eigenvalues --    3.48287   3.48704   3.49053   3.49324   3.49375
 Alpha virt. eigenvalues --    3.49538   3.49856   3.50204   3.50443   3.50514
 Alpha virt. eigenvalues --    3.51100   3.51252   3.51504   3.51978   3.52068
 Alpha virt. eigenvalues --    3.52352   3.52415   3.52718   3.52936   3.53175
 Alpha virt. eigenvalues --    3.53411   3.53717   3.53872   3.54020   3.54212
 Alpha virt. eigenvalues --    3.54700   3.54906   3.55087   3.55730   3.55966
 Alpha virt. eigenvalues --    3.56274   3.56530   3.56927   3.57089   3.57480
 Alpha virt. eigenvalues --    3.57960   3.58043   3.58120   3.58475   3.58782
 Alpha virt. eigenvalues --    3.58909   3.59289   3.59492   3.59794   3.60208
 Alpha virt. eigenvalues --    3.60361   3.60898   3.61145   3.61977   3.62159
 Alpha virt. eigenvalues --    3.62362   3.62467   3.62604   3.63077   3.63322
 Alpha virt. eigenvalues --    3.63685   3.64363   3.65033   3.65367   3.65718
 Alpha virt. eigenvalues --    3.65856   3.66122   3.66556   3.66781   3.67017
 Alpha virt. eigenvalues --    3.67135   3.67360   3.67607   3.67869   3.68016
 Alpha virt. eigenvalues --    3.68316   3.68567   3.69044   3.69485   3.69830
 Alpha virt. eigenvalues --    3.69977   3.70310   3.70611   3.70749   3.71199
 Alpha virt. eigenvalues --    3.71431   3.71789   3.72099   3.72217   3.72672
 Alpha virt. eigenvalues --    3.73444   3.73704   3.74081   3.74204   3.74439
 Alpha virt. eigenvalues --    3.74624   3.74985   3.75415   3.75538   3.75658
 Alpha virt. eigenvalues --    3.75670   3.76309   3.76557   3.76669   3.76975
 Alpha virt. eigenvalues --    3.77365   3.77398   3.77551   3.78013   3.78096
 Alpha virt. eigenvalues --    3.78472   3.78836   3.79022   3.79324   3.79486
 Alpha virt. eigenvalues --    3.79627   3.80242   3.80450   3.80837   3.81455
 Alpha virt. eigenvalues --    3.81499   3.81893   3.82096   3.82329   3.82562
 Alpha virt. eigenvalues --    3.82901   3.83272   3.83392   3.84165   3.84484
 Alpha virt. eigenvalues --    3.84726   3.85055   3.85368   3.85744   3.86005
 Alpha virt. eigenvalues --    3.86078   3.86432   3.87154   3.87487   3.87665
 Alpha virt. eigenvalues --    3.87778   3.88152   3.88650   3.88907   3.89582
 Alpha virt. eigenvalues --    3.90139   3.90486   3.90582   3.91774   3.91874
 Alpha virt. eigenvalues --    3.91948   3.92604   3.92844   3.93311   3.93663
 Alpha virt. eigenvalues --    3.93906   3.94107   3.94203   3.94346   3.95010
 Alpha virt. eigenvalues --    3.95400   3.95697   3.96402   3.96642   3.96941
 Alpha virt. eigenvalues --    3.97198   3.97366   3.97700   3.97863   3.98203
 Alpha virt. eigenvalues --    3.98840   3.99099   3.99893   4.00173   4.00462
 Alpha virt. eigenvalues --    4.00896   4.01066   4.01304   4.01429   4.01990
 Alpha virt. eigenvalues --    4.02106   4.02576   4.02862   4.03451   4.03781
 Alpha virt. eigenvalues --    4.03825   4.04511   4.04980   4.05128   4.05639
 Alpha virt. eigenvalues --    4.06272   4.06413   4.06492   4.07048   4.07315
 Alpha virt. eigenvalues --    4.07523   4.08073   4.08348   4.08521   4.09179
 Alpha virt. eigenvalues --    4.09406   4.09768   4.10147   4.10427   4.10524
 Alpha virt. eigenvalues --    4.10778   4.11009   4.11424   4.11702   4.12121
 Alpha virt. eigenvalues --    4.12317   4.12441   4.12812   4.13140   4.13249
 Alpha virt. eigenvalues --    4.13614   4.13782   4.13993   4.14371   4.14431
 Alpha virt. eigenvalues --    4.14654   4.15201   4.15737   4.15971   4.16357
 Alpha virt. eigenvalues --    4.16629   4.16954   4.17422   4.17625   4.17840
 Alpha virt. eigenvalues --    4.18041   4.18302   4.18663   4.18840   4.19244
 Alpha virt. eigenvalues --    4.19610   4.19890   4.20078   4.20479   4.20703
 Alpha virt. eigenvalues --    4.21021   4.21438   4.21823   4.21961   4.22209
 Alpha virt. eigenvalues --    4.22517   4.22649   4.22893   4.23268   4.23344
 Alpha virt. eigenvalues --    4.23602   4.24078   4.24259   4.24499   4.24612
 Alpha virt. eigenvalues --    4.24935   4.25355   4.25556   4.25828   4.26133
 Alpha virt. eigenvalues --    4.26213   4.26654   4.27370   4.27741   4.28227
 Alpha virt. eigenvalues --    4.28452   4.28633   4.29173   4.29357   4.29905
 Alpha virt. eigenvalues --    4.29926   4.30177   4.30361   4.30694   4.31032
 Alpha virt. eigenvalues --    4.31514   4.31643   4.31797   4.32013   4.32205
 Alpha virt. eigenvalues --    4.32467   4.33341   4.33440   4.34085   4.34210
 Alpha virt. eigenvalues --    4.34654   4.34765   4.35428   4.35668   4.35979
 Alpha virt. eigenvalues --    4.36336   4.37033   4.37206   4.37623   4.37980
 Alpha virt. eigenvalues --    4.38465   4.38481   4.39428   4.39628   4.40255
 Alpha virt. eigenvalues --    4.40631   4.40837   4.41101   4.41302   4.42028
 Alpha virt. eigenvalues --    4.42467   4.42748   4.43033   4.43229   4.43559
 Alpha virt. eigenvalues --    4.44009   4.44499   4.44811   4.45638   4.46087
 Alpha virt. eigenvalues --    4.46448   4.46643   4.47009   4.47343   4.47615
 Alpha virt. eigenvalues --    4.48073   4.48613   4.48848   4.49044   4.49486
 Alpha virt. eigenvalues --    4.50304   4.50548   4.50958   4.52323   4.52577
 Alpha virt. eigenvalues --    4.52973   4.53391   4.53781   4.54163   4.54430
 Alpha virt. eigenvalues --    4.55249   4.55616   4.57090   4.57160   4.57777
 Alpha virt. eigenvalues --    4.58161   4.58738   4.59232   4.59944   4.60131
 Alpha virt. eigenvalues --    4.61227   4.61863   4.62145   4.62904   4.63176
 Alpha virt. eigenvalues --    4.63588   4.64007   4.64329   4.65186   4.65330
 Alpha virt. eigenvalues --    4.65412   4.65488   4.65579   4.65889   4.66503
 Alpha virt. eigenvalues --    4.66765   4.67018   4.67261   4.67887   4.67976
 Alpha virt. eigenvalues --    4.68674   4.69174   4.69349   4.69660   4.69861
 Alpha virt. eigenvalues --    4.70425   4.70463   4.71530   4.71752   4.72287
 Alpha virt. eigenvalues --    4.72901   4.72995   4.73569   4.73765   4.74043
 Alpha virt. eigenvalues --    4.74623   4.74855   4.75577   4.75990   4.76307
 Alpha virt. eigenvalues --    4.76840   4.77163   4.78486   4.78632   4.78681
 Alpha virt. eigenvalues --    4.79592   4.79891   4.80797   4.81094   4.81202
 Alpha virt. eigenvalues --    4.81677   4.82516   4.82820   4.83203   4.83462
 Alpha virt. eigenvalues --    4.84515   4.84597   4.84941   4.85471   4.85824
 Alpha virt. eigenvalues --    4.86258   4.87964   4.88422   4.88454   4.88836
 Alpha virt. eigenvalues --    4.89474   4.90038   4.91424   4.91794   4.92031
 Alpha virt. eigenvalues --    4.93788   4.93944   4.94430   4.94866   4.95289
 Alpha virt. eigenvalues --    4.95706   4.95904   4.96624   4.96790   4.97114
 Alpha virt. eigenvalues --    4.97605   4.98981   4.99210   5.00062   5.00320
 Alpha virt. eigenvalues --    5.00919   5.01529   5.01660   5.02014   5.03034
 Alpha virt. eigenvalues --    5.03990   5.04800   5.05177   5.05259   5.05724
 Alpha virt. eigenvalues --    5.06449   5.06723   5.07498   5.08151   5.08499
 Alpha virt. eigenvalues --    5.08858   5.09991   5.10409   5.11826   5.12174
 Alpha virt. eigenvalues --    5.12495   5.13099   5.13328   5.14010   5.14201
 Alpha virt. eigenvalues --    5.14379   5.14642   5.15385   5.16077   5.16160
 Alpha virt. eigenvalues --    5.16727   5.17610   5.17673   5.17790   5.17925
 Alpha virt. eigenvalues --    5.18401   5.18750   5.19319   5.19468   5.19732
 Alpha virt. eigenvalues --    5.20074   5.20345   5.20418   5.20842   5.21170
 Alpha virt. eigenvalues --    5.21989   5.22087   5.22611   5.22804   5.23238
 Alpha virt. eigenvalues --    5.23682   5.23869   5.24118   5.24632   5.25237
 Alpha virt. eigenvalues --    5.25945   5.26370   5.26502   5.26697   5.27164
 Alpha virt. eigenvalues --    5.28026   5.28429   5.29512   5.29737   5.29816
 Alpha virt. eigenvalues --    5.30683   5.31076   5.31486   5.31786   5.32304
 Alpha virt. eigenvalues --    5.32596   5.32942   5.33472   5.33767   5.33861
 Alpha virt. eigenvalues --    5.34345   5.35209   5.35429   5.35937   5.36638
 Alpha virt. eigenvalues --    5.37671   5.37858   5.38585   5.38887   5.38957
 Alpha virt. eigenvalues --    5.39214   5.39458   5.40255   5.40690   5.41204
 Alpha virt. eigenvalues --    5.41614   5.41894   5.42293   5.42839   5.43653
 Alpha virt. eigenvalues --    5.43691   5.43893   5.44827   5.45217   5.45966
 Alpha virt. eigenvalues --    5.46285   5.46484   5.47380   5.47822   5.48831
 Alpha virt. eigenvalues --    5.49256   5.49954   5.51211   5.52033   5.52835
 Alpha virt. eigenvalues --    5.53581   5.54304   5.54778   5.55378   5.55986
 Alpha virt. eigenvalues --    5.56589   5.57636   5.58251   5.58591   5.59588
 Alpha virt. eigenvalues --    5.60026   5.60716   5.61299   5.61547   5.61680
 Alpha virt. eigenvalues --    5.62002   5.62266   5.62857   5.63144   5.63771
 Alpha virt. eigenvalues --    5.64083   5.64122   5.64604   5.65390   5.66159
 Alpha virt. eigenvalues --    5.66850   5.67211   5.68244   5.68264   5.70523
 Alpha virt. eigenvalues --    5.70693   5.70881   5.71244   5.71767   5.72599
 Alpha virt. eigenvalues --    5.73620   5.75607   5.76278   5.76871   5.78065
 Alpha virt. eigenvalues --    5.79539   5.80187   5.81054   5.82091   5.82815
 Alpha virt. eigenvalues --    5.83930   5.86295   5.87101   5.87928   5.89001
 Alpha virt. eigenvalues --    5.90157   5.90496   5.91640   5.97547   5.98936
 Alpha virt. eigenvalues --    5.99449   6.01651   6.02235   6.03618   6.05110
 Alpha virt. eigenvalues --    6.05357   6.06423   6.06541   6.08722   6.08907
 Alpha virt. eigenvalues --    6.10615   6.11183   6.11537   6.15472   6.19653
 Alpha virt. eigenvalues --    6.22397   6.31295   6.32612   6.35128   6.40628
 Alpha virt. eigenvalues --    6.41676   6.42378   6.43757   6.46438   6.46807
 Alpha virt. eigenvalues --    6.49498   6.51682   6.55158   6.59919   6.60233
 Alpha virt. eigenvalues --    6.66110   6.70326   6.72734   6.74051   6.76309
 Alpha virt. eigenvalues --    6.76919   6.77499   6.79172   6.83181   6.83949
 Alpha virt. eigenvalues --    6.85594   6.87334   6.87619   6.89405   6.91521
 Alpha virt. eigenvalues --    6.93652   6.97104   6.98609   6.99741   7.01790
 Alpha virt. eigenvalues --    7.06579   7.09519   7.12601   7.13568   7.20817
 Alpha virt. eigenvalues --    7.22782   7.27101   7.34247   7.39947   7.47653
 Alpha virt. eigenvalues --    7.57105   7.58387   7.66451   7.84261   7.89646
 Alpha virt. eigenvalues --    7.95694   8.02146   8.42098   8.63768   8.81274
 Alpha virt. eigenvalues --    9.06859   9.19541   9.54181   9.55961   9.72920
 Alpha virt. eigenvalues --    9.79497  10.15048  10.16650  22.57075  22.57260
 Alpha virt. eigenvalues --   22.59557  22.75554  22.87638  22.91235  22.93914
 Alpha virt. eigenvalues --   23.02035  23.02586  23.03553  23.05009  23.07364
 Alpha virt. eigenvalues --   23.10400  23.12132  23.13599  23.15025  23.16498
 Alpha virt. eigenvalues --   23.17095  23.17297  23.19207  23.20891  23.21192
 Alpha virt. eigenvalues --   23.22531  23.25823  23.28001  23.28717  23.29752
 Alpha virt. eigenvalues --   23.30559  23.31739  23.33312  23.36170  23.41069
 Alpha virt. eigenvalues --   23.41630  23.43234  23.44930  23.49823  23.53973
 Alpha virt. eigenvalues --   23.67495  23.69269  23.73875  23.89569  24.10679
 Alpha virt. eigenvalues --   24.14200  24.25830  32.47121  32.82163  33.24077
 Alpha virt. eigenvalues --   34.60590  34.62484  34.91935  42.91795  43.86690
 Alpha virt. eigenvalues --   43.93273  44.09806  44.22732  44.27731  57.59895
 Alpha virt. eigenvalues --  117.84885
          Condensed to atoms (all electrons):
 Mulliken charges:
               1
     1  C    0.170386
     2  C    0.022367
     3  C    0.027915
     4  C   -0.195572
     5  C    0.276091
     6  N   -0.255539
     7  H    0.147175
     8  C   -0.136954
     9  C    0.134858
    10  C   -0.173558
    11  C   -0.191337
    12  C   -0.108871
    13  H    0.155241
    14  H    0.161455
    15  H    0.164459
    16  C    0.301917
    17  C    0.068884
    18  C   -0.189509
    19  C   -0.182819
    20  C   -0.172236
    21  H    0.149064
    22  C   -0.185846
    23  H    0.155812
    24  C   -0.143402
    25  H    0.150823
    26  H    0.152042
    27  H    0.154130
    28  F   -0.211017
    29  C   -0.258927
    30  H    0.116703
    31  H    0.112636
    32  H    0.090976
    33  C   -0.059360
    34  C   -0.027576
    35  C    0.020179
    36  H    0.104138
    37  H    0.115449
    38  C    0.000369
    39  H    0.122785
    40  H    0.113314
    41  H    0.076468
    42  H    0.108792
    43  H    0.088567
    44  H    0.105077
    45  N    0.014478
    46  O   -0.330673
    47  I   -0.030920
    48  H    0.177398
    49  C   -0.143634
    50  C   -0.200272
    51  C   -0.166887
    52  C    0.042605
    53  C   -0.118397
    54  C   -0.148585
    55  H    0.151806
    56  H    0.159557
    57  C    0.248014
    58  C   -0.225209
    59  H    0.142034
    60  H    0.150493
    61  C   -0.095667
    62  C   -0.109695
    63  H    0.144828
    64  C    0.205944
    65  C   -0.088601
    66  C   -0.153066
    67  C   -0.106591
    68  C    0.015156
    69  C   -0.209007
    70  C   -0.178456
    71  C   -0.115275
    72  C   -0.140763
    73  H    0.159023
    74  H    0.144460
    75  C   -0.151281
    76  H    0.143063
    77  H    0.151296
    78  H    0.150341
    79  S    0.879723
    80  O   -0.509950
    81  O   -0.573097
    82  S    0.813633
    83  O   -0.495010
    84  O   -0.536094
    85  N   -0.463971
    86  H    0.152265
    87  H    0.169439
 Sum of Mulliken charges =   0.00000
 Mulliken charges with hydrogens summed into heavy atoms:
               1
     1  C    0.170386
     2  C    0.199765
     3  C    0.027915
     4  C   -0.048398
     5  C    0.276091
     6  N   -0.255539
     8  C   -0.136954
     9  C    0.134858
    10  C   -0.018317
    11  C   -0.026879
    12  C    0.052583
    16  C    0.301917
    17  C    0.068884
    18  C   -0.040444
    19  C   -0.027006
    20  C   -0.021412
    22  C   -0.033804
    24  C    0.010728
    28  F   -0.211017
    29  C    0.061389
    33  C    0.160227
    34  C    0.208522
    35  C    0.205439
    38  C    0.194013
    45  N    0.014478
    46  O   -0.330673
    47  I   -0.030920
    49  C    0.008172
    50  C   -0.040715
    51  C   -0.166887
    52  C    0.042605
    53  C    0.023637
    54  C    0.001908
    57  C    0.248014
    58  C   -0.080381
    61  C    0.073772
    62  C   -0.109695
    64  C    0.205944
    65  C   -0.088601
    66  C   -0.153066
    67  C    0.045674
    68  C    0.015156
    69  C   -0.049985
    70  C   -0.033996
    71  C    0.027787
    72  C    0.010533
    75  C   -0.000940
    79  S    0.879723
    80  O   -0.509950
    81  O   -0.573097
    82  S    0.813633
    83  O   -0.495010
    84  O   -0.536094
    85  N   -0.463971
 Electronic spatial extent (au):  <R**2>=          38245.2474
 Charge=              0.0000 electrons
 Dipole moment (field-independent basis, Debye):
    X=             11.9017    Y=             -8.9855    Z=              5.1326  Tot=             15.7713
 Quadrupole moment (field-independent basis, Debye-Ang):
   XX=           -316.0391   YY=           -276.5569   ZZ=           -341.5730
   XY=             -8.2618   XZ=            -12.5753   YZ=            -22.0933
 Traceless Quadrupole moment (field-independent basis, Debye-Ang):
   XX=             -4.6494   YY=             34.8328   ZZ=            -30.1834
   XY=             -8.2618   XZ=            -12.5753   YZ=            -22.0933
 Octapole moment (field-independent basis, Debye-Ang**2):
  XXX=            -93.3937  YYY=           -166.6091  ZZZ=           -175.5358  XYY=            -40.6877
  XXY=            -12.3646  XXZ=             33.0843  XZZ=            -30.8656  YZZ=            -86.8560
  YYZ=              1.0653  XYZ=            -73.2378
 Hexadecapole moment (field-independent basis, Debye-Ang**3):
 XXXX=         -18826.3880 YYYY=         -23336.1955 ZZZZ=          -7756.5292 XXXY=           6132.7300
 XXXZ=            577.9298 YYYX=           6322.9023 YYYZ=             96.6193 ZZZX=            609.0668
 ZZZY=            523.6244 XXYY=          -7144.0719 XXZZ=          -4651.9937 YYZZ=          -5031.7165
 XXYZ=            189.0903 YYXZ=            -45.1895 ZZXY=           2256.2193
 N-N= 8.829029804565D+03 E-N=-2.545502118085D+04  KE= 3.158449803341D+03
 No NMR shielding tensors so no spin-rotation constants.
 Leave Link  601 at Tue Jun 11 21:41:16 2024, MaxMem=  8589934592 cpu:              45.5 elap:               1.8
 (Enter /opt/packages/gaussian/g16RevC.01/g16/l9999.exe)
 Unable to Open any file for archive entry.
 1\1\GINC-R208\SP\RB3LYP\def2TZVPP\C42H33F1I1N3O5S2\BIM2\11-Jun-2024\0\
 \#p b3lyp def2tzvpp scf=maxcycle=128 nosymm scrf=(smd,solvent=propylet
 hanoate) empiricaldispersion=gd3bj\\Title Card Required\\0,1\C,0,1.679
 209,-1.81685,-0.318325\C,0,0.322659,-2.189625,-0.828615\C,0,-0.534854,
 -2.920176,0.138119\C,0,-0.015748,-3.301465,1.325378\C,0,1.385536,-3.06
 5505,1.603109\N,0,2.155931,-2.286677,0.781778\H,0,-0.654488,-3.802863,
 2.047094\C,0,2.548384,-0.891591,-1.097196\C,0,3.962675,-1.020819,-1.11
 519\C,0,4.733409,-0.054999,-1.771015\C,0,2.765109,1.167152,-2.423037\C
 ,0,4.146517,1.031506,-2.416378\H,0,5.816795,-0.178467,-1.794035\H,0,4.
 7697,1.768323,-2.92498\H,0,2.253848,1.997032,-2.911746\C,0,1.998441,0.
 210352,-1.772581\C,0,4.701819,-2.170254,-0.516248\C,0,5.775534,-1.9264
 13,0.348451\C,0,4.397303,-3.494494,-0.861495\C,0,6.522756,-2.984556,0.
 869935\H,0,6.019006,-0.898515,0.625301\C,0,5.144559,-4.548909,-0.34393
 6\H,0,3.570989,-3.694728,-1.547868\C,0,6.210373,-4.298049,0.525039\H,0
 ,7.353007,-2.777156,1.547539\H,0,4.900015,-5.574449,-0.627322\H,0,6.79
 5534,-5.126573,0.928362\F,0,0.680828,0.401521,-1.782679\C,0,-1.954461,
 -3.185141,-0.237344\H,0,-2.424551,-2.259566,-0.602752\H,0,-1.997443,-3
 .928399,-1.049009\H,0,-2.521185,-3.568189,0.620026\C,0,1.339253,-4.331
 582,3.728353\C,0,3.429772,-3.389488,2.916603\C,0,2.075489,-5.651019,3.
 932262\H,0,0.287877,-4.518277,3.502393\H,0,1.39998,-3.7281,4.647071\C,
 0,4.061332,-4.756282,3.153882\H,0,3.892936,-2.883691,2.064619\H,0,3.53
 5396,-2.767558,3.81905\H,0,1.956298,-6.278528,3.028321\H,0,1.633393,-6
 .180432,4.785966\H,0,4.004535,-5.351938,2.223445\H,0,5.118447,-4.62424
 9,3.41881\N,0,1.991175,-3.561461,2.665647\O,0,3.432317,-5.437282,4.209
 69\I,0,0.640441,-3.39566,-2.608823\H,0,-0.224819,-1.322862,-1.212035\C
 ,0,-1.900005,6.688815,-1.346198\C,0,-2.223843,5.497663,-0.743179\C,0,-
 1.212334,4.563125,-0.376703\C,0,0.145276,4.883417,-0.678109\C,0,0.4493
 86,6.131347,-1.290409\C,0,-0.547688,7.017136,-1.614485\H,0,-2.691379,7
 .385928,-1.626152\H,0,-3.269787,5.25485,-0.55422\C,0,-1.517854,3.30998
 4,0.255023\C,0,1.170391,3.946302,-0.377969\H,0,1.494684,6.363631,-1.50
 4975\H,0,-0.304887,7.969555,-2.088635\C,0,0.857727,2.725082,0.158969\C
 ,0,-0.487618,2.409823,0.462543\H,0,2.207467,4.206362,-0.600957\C,0,-2.
 92698,3.000481,0.655936\C,0,-3.622532,1.930819,0.119966\C,0,-3.574629,
 3.805046,1.654454\C,0,-4.962755,1.650263,0.47446\C,0,-4.933568,3.53443
 5,1.99674\C,0,-2.901965,4.855062,2.345238\C,0,-5.612262,2.451288,1.376
 73\C,0,-5.582673,4.340904,2.97324\C,0,-3.552159,5.60819,3.292418\H,0,-
 1.852605,5.053494,2.126856\H,0,-6.652034,2.255921,1.646623\C,0,-4.9117
 63,5.358104,3.60453\H,0,-6.625504,4.124796,3.21482\H,0,-3.015251,6.402
 64,3.813296\H,0,-5.41711,5.968414,4.354864\S,0,-0.840803,0.764067,1.04
 885\O,0,-1.544958,0.895361,2.290402\O,0,0.418703,0.064834,1.111093\S,0
 ,-2.796487,0.791611,-0.974143\O,0,-2.20927,1.564473,-2.02792\O,0,-3.75
 3548,-0.204383,-1.366607\N,0,-1.713239,0.078901,-0.069573\H,0,-5.45391
 3,0.795144,0.010761\H,0,1.626296,1.981442,0.370996\\Version=ES64L-G16R
 evC.01\HF=-3355.9046004\RMSD=1.783e-09\Dipole=4.6825085,-3.5351598,2.0
 193054\Quadrupole=-3.456741,25.8973232,-22.4405823,-6.1424364,-9.34942
 59,-16.4258219\PG=C01 [X(C42H33F1I1N3O5S2)]\\@
 The archive entry for this job was punched.


 ...THOSE SCIENCES ARE VAIN AND FULL OF ERRORS WHICH 
 ARE NOT BORN FROM EXPERIMENT, THE MOTHER OF CERTAINTY...

                          -- LEONARDO DA VINCI, 1452-1519
 Job cpu time:       0 days 22 hours 29 minutes 41.4 seconds.
 Elapsed time:       0 days  0 hours 42 minutes 34.6 seconds.
 File lengths (MBytes):  RWF=   3161 Int=      0 D2E=      0 Chk=    275 Scr=      1
 Normal termination of Gaussian 16 at Tue Jun 11 21:41:16 2024.
