 Entering Gaussian System, Link 0=g16
 Initial command:
 /opt/packages/gaussian/g16RevC.01/g16/l1.exe "/local/Gau-89819.inp" -scrdir="/local/"
 Entering Link 1 = /opt/packages/gaussian/g16RevC.01/g16/l1.exe PID=     89828.
  
 Copyright (c) 1988-2019, Gaussian, Inc.  All Rights Reserved.
  
 This is part of the Gaussian(R) 16 program.  It is based on
 the Gaussian(R) 09 system (copyright 2009, Gaussian, Inc.),
 the Gaussian(R) 03 system (copyright 2003, Gaussian, Inc.),
 the Gaussian(R) 98 system (copyright 1998, Gaussian, Inc.),
 the Gaussian(R) 94 system (copyright 1995, Gaussian, Inc.),
 the Gaussian 92(TM) system (copyright 1992, Gaussian, Inc.),
 the Gaussian 90(TM) system (copyright 1990, Gaussian, Inc.),
 the Gaussian 88(TM) system (copyright 1988, Gaussian, Inc.),
 the Gaussian 86(TM) system (copyright 1986, Carnegie Mellon
 University), and the Gaussian 82(TM) system (copyright 1983,
 Carnegie Mellon University). Gaussian is a federally registered
 trademark of Gaussian, Inc.
  
 This software contains proprietary and confidential information,
 including trade secrets, belonging to Gaussian, Inc.
  
 This software is provided under written license and may be
 used, copied, transmitted, or stored only in accord with that
 written license.
  
 The following legend is applicable only to US Government
 contracts under FAR:
  
                    RESTRICTED RIGHTS LEGEND
  
 Use, reproduction and disclosure by the US Government is
 subject to restrictions as set forth in subparagraphs (a)
 and (c) of the Commercial Computer Software - Restricted
 Rights clause in FAR 52.227-19.
  
 Gaussian, Inc.
 340 Quinnipiac St., Bldg. 40, Wallingford CT 06492
  
  
 ---------------------------------------------------------------
 Warning -- This program may not be used in any manner that
 competes with the business of Gaussian, Inc. or will provide
 assistance to any competitor of Gaussian, Inc.  The licensee
 of this program is prohibited from giving any competitor of
 Gaussian, Inc. access to this program.  By using this program,
 the user acknowledges that Gaussian, Inc. is engaged in the
 business of creating and licensing software in the field of
 computational chemistry and represents and warrants to the
 licensee that it is not a competitor of Gaussian, Inc. and that
 it will not use this program in any manner prohibited above.
 ---------------------------------------------------------------
  

 Cite this work as:
 Gaussian 16, Revision C.01,
 M. J. Frisch, G. W. Trucks, H. B. Schlegel, G. E. Scuseria, 
 M. A. Robb, J. R. Cheeseman, G. Scalmani, V. Barone, 
 G. A. Petersson, H. Nakatsuji, X. Li, M. Caricato, A. V. Marenich, 
 J. Bloino, B. G. Janesko, R. Gomperts, B. Mennucci, H. P. Hratchian, 
 J. V. Ortiz, A. F. Izmaylov, J. L. Sonnenberg, D. Williams-Young, 
 F. Ding, F. Lipparini, F. Egidi, J. Goings, B. Peng, A. Petrone, 
 T. Henderson, D. Ranasinghe, V. G. Zakrzewski, J. Gao, N. Rega, 
 G. Zheng, W. Liang, M. Hada, M. Ehara, K. Toyota, R. Fukuda, 
 J. Hasegawa, M. Ishida, T. Nakajima, Y. Honda, O. Kitao, H. Nakai, 
 T. Vreven, K. Throssell, J. A. Montgomery, Jr., J. E. Peralta, 
 F. Ogliaro, M. J. Bearpark, J. J. Heyd, E. N. Brothers, K. N. Kudin, 
 V. N. Staroverov, T. A. Keith, R. Kobayashi, J. Normand, 
 K. Raghavachari, A. P. Rendell, J. C. Burant, S. S. Iyengar, 
 J. Tomasi, M. Cossi, J. M. Millam, M. Klene, C. Adamo, R. Cammi, 
 J. W. Ochterski, R. L. Martin, K. Morokuma, O. Farkas, 
 J. B. Foresman, and D. J. Fox, Gaussian, Inc., Wallingford CT, 2019.
 
 ******************************************
 Gaussian 16:  ES64L-G16RevC.01  3-Jul-2019
                11-Jun-2024 
 ******************************************
 %nprocshared=32
 Will use up to   32 processors via shared memory.
 %mem=64GB
 ----------------------------------------------------------------------
 #p b3lyp def2tzvpp scf=maxcycle=128 nosymm scrf=(smd,solvent=propyleth
 anoate) empiricaldispersion=gd3bj
 ----------------------------------------------------------------------
 1/38=1,172=1/1;
 2/12=2,15=1,17=6,18=5,40=1/2;
 3/5=44,7=202,11=2,25=1,30=1,70=32201,72=169,74=-5,124=41/1,2,3;
 4//1;
 5/5=2,7=128,38=5,53=169/2;
 6/7=2,8=2,9=2,10=2,28=1/1;
 99/5=1,9=1/99;
 Leave Link    1 at Tue Jun 11 17:46:40 2024, MaxMem=  8589934592 cpu:               0.9 elap:               0.0
 (Enter /opt/packages/gaussian/g16RevC.01/g16/l101.exe)
 -------------------
 Title Card Required
 -------------------
 Symbolic Z-matrix:
 Charge =  0 Multiplicity = 1
 N                    -2.44788   0.67731  -0.30889 
 C                    -3.10724   1.53927   0.5687 
 C                    -2.27843   1.61141   1.83862 
 C                    -1.10213   0.66246   1.61532 
 C                    -1.27164   0.12843   0.20425 
 O                    -0.5552   -0.62811  -0.3905 
 O                    -4.13643   2.10567   0.3251 
 H                    -1.97466   2.65711   1.98455 
 H                    -2.91907   1.33284   2.68585 
 H                    -1.09619  -0.19531   2.30191 
 H                    -0.11987   1.14828   1.68564 
 I                    -3.13815   0.25301  -2.15234 
 
 ITRead=  0  0  0  0  0  0  0  0  0  0  0  0
 MicOpt= -1 -1 -1 -1 -1 -1 -1 -1 -1 -1 -1 -1
 NAtoms=     12 NQM=       12 NQMF=       0 NMMI=      0 NMMIF=      0
                NMic=       0 NMicF=      0.
                    Isotopes and Nuclear Properties:
 (Nuclear quadrupole moments (NQMom) in fm**2, nuclear magnetic moments (NMagM)
  in nuclear magnetons)

  Atom         1           2           3           4           5           6           7           8           9          10
 IAtWgt=          14          12          12          12          12          16          16           1           1           1
 AtmWgt=  14.0030740  12.0000000  12.0000000  12.0000000  12.0000000  15.9949146  15.9949146   1.0078250   1.0078250   1.0078250
 NucSpn=           2           0           0           0           0           0           0           1           1           1
 AtZEff=   0.0000000   0.0000000   0.0000000   0.0000000   0.0000000   0.0000000   0.0000000   0.0000000   0.0000000   0.0000000
 NQMom=    2.0440000   0.0000000   0.0000000   0.0000000   0.0000000   0.0000000   0.0000000   0.0000000   0.0000000   0.0000000
 NMagM=    0.4037610   0.0000000   0.0000000   0.0000000   0.0000000   0.0000000   0.0000000   2.7928460   2.7928460   2.7928460
 AtZNuc=   7.0000000   6.0000000   6.0000000   6.0000000   6.0000000   8.0000000   8.0000000   1.0000000   1.0000000   1.0000000

  Atom        11          12
 IAtWgt=           1         127
 AtmWgt=   1.0078250 126.9004000
 NucSpn=           1           5
 AtZEff=   0.0000000   0.0000000
 NQMom=    0.0000000 -71.0000000
 NMagM=    2.7928460   2.8132800
 AtZNuc=   1.0000000  53.0000000
 Leave Link  101 at Tue Jun 11 17:46:40 2024, MaxMem=  8589934592 cpu:               1.6 elap:               0.1
 (Enter /opt/packages/gaussian/g16RevC.01/g16/l202.exe)
                          Input orientation:                          
 ---------------------------------------------------------------------
 Center     Atomic      Atomic             Coordinates (Angstroms)
 Number     Number       Type             X           Y           Z
 ---------------------------------------------------------------------
      1          7           0       -2.447881    0.677306   -0.308894
      2          6           0       -3.107235    1.539274    0.568702
      3          6           0       -2.278430    1.611405    1.838616
      4          6           0       -1.102128    0.662461    1.615317
      5          6           0       -1.271641    0.128426    0.204248
      6          8           0       -0.555203   -0.628111   -0.390499
      7          8           0       -4.136431    2.105666    0.325097
      8          1           0       -1.974658    2.657113    1.984550
      9          1           0       -2.919070    1.332842    2.685854
     10          1           0       -1.096192   -0.195308    2.301911
     11          1           0       -0.119872    1.148283    1.685641
     12         53           0       -3.138148    0.253005   -2.152344
 ---------------------------------------------------------------------
                    Distance matrix (angstroms):
                    1          2          3          4          5
     1  N    0.000000
     2  C    1.395676   0.000000
     3  C    2.347989   1.518157   0.000000
     4  C    2.348161   2.425831   1.527758   0.000000
     5  C    1.395752   2.343656   2.425698   1.518237   0.000000
     6  O    2.300653   3.482886   3.599152   2.447039   1.199731
     7  O    2.300730   1.199745   2.446876   3.599236   3.482973
     8  H    3.066506   2.130005   1.098672   2.208230   3.171430
     9  H    3.101655   2.135498   1.098103   2.212858   3.212944
    10  H    3.066728   3.171290   2.208289   1.098733   2.129736
    11  H    3.101550   3.213217   2.212974   1.098087   2.135698
    12  I    2.013655   3.009906   4.302572   4.302128   3.008803
                    6          7          8          9         10
     6  O    0.000000
     7  O    4.561886   0.000000
     8  H    4.295161   2.780493   0.000000
     9  H    4.347085   2.766297   1.771281   0.000000
    10  H    2.780119   4.294802   3.001454   2.409469   0.000000
    11  H    2.766848   4.347460   2.409595   2.978254   1.771504
    12  I    3.248395   3.250636   4.924158   4.962076   4.920463
                   11         12
    11  H    0.000000
    12  I    4.964035   0.000000
 Symmetry turned off by external request.
 Stoichiometry    C4H4INO2
 Framework group  C1[X(C4H4INO2)]
 Deg. of freedom    30
 Full point group                 C1      NOp   1
 Rotational constants (GHZ):           2.2723488           0.8974128           0.6485861
 Leave Link  202 at Tue Jun 11 17:46:40 2024, MaxMem=  8589934592 cpu:               0.4 elap:               0.0
 (Enter /opt/packages/gaussian/g16RevC.01/g16/l301.exe)
 Standard basis: def2TZVPP (5D, 7F)
 Ernie: Thresh=  0.10000D-02 Tol=  0.10000D-05 Strict=F.
   323 basis functions,   534 primitive gaussians,   371 cartesian basis functions
    38 alpha electrons       38 beta electrons
       nuclear repulsion energy       492.1172839650 Hartrees.
 IExCor=  402 DFT=T Ex+Corr=B3LYP ExCW=0 ScaHFX=  0.200000
 ScaDFX=  0.800000  0.720000  1.000000  0.810000 ScalE2=  1.000000  1.000000
 IRadAn=      5 IRanWt=     -1 IRanGd=            0 ICorTp=0 IEmpDi=141
 NAtoms=   12 NActive=   12 NUniq=   12 SFac= 1.00D+00 NAtFMM=   60 NAOKFM=F Big=F
 Integral buffers will be    131072 words long.
 Raffenetti 2 integral format.
 Two-electron integral symmetry is turned off.
 R6Disp:  Grimme-D3(BJ) Dispersion energy=       -0.0236565417 Hartrees.
 Nuclear repulsion after empirical dispersion term =      492.0936274233 Hartrees.
 ------------------------------------------------------------------------------
 Polarizable Continuum Model (PCM)
 =================================
 Model                : PCM.
 Atomic radii         : SMD-Coulomb.
 Polarization charges : Total charges.
 Charge compensation  : None.
 Solution method      : On-the-fly selection.
 Cavity type          : VdW (van der Waals Surface) (Alpha=1.000).
 Cavity algorithm     : GePol (No added spheres)
                        Default sphere list used, NSphG=   12.
                        Lebedev-Laikov grids with approx.  5.0 points / Ang**2.
                        Smoothing algorithm: York/Karplus (Gamma=1.0000).
                        Polarization charges: spherical gaussians, with
                                              point-specific exponents (IZeta= 3).
                        Self-potential: point-specific (ISelfS= 7).
                        Self-field    : sphere-specific E.n sum rule (ISelfD= 2).
 Solvent              : PropylEthanoate, Eps=   5.520500 Eps(inf)=   1.916010
 ------------------------------------------------------------------------------
 Spheres list:
 ISph  on   Nord     Re0    Alpha      Xe            Ye            Ze
    1   N      1    1.8900  1.000     -2.447881      0.677306     -0.308894
    2   C      2    1.8500  1.000     -3.107235      1.539274      0.568702
    3   C      3    1.8500  1.000     -2.278430      1.611405      1.838616
    4   C      4    1.8500  1.000     -1.102128      0.662461      1.615317
    5   C      5    1.8500  1.000     -1.271641      0.128426      0.204248
    6   O      6    2.2940  1.000     -0.555203     -0.628111     -0.390499
    7   O      7    2.2940  1.000     -4.136431      2.105666      0.325097
    8   H      8    1.2000  1.000     -1.974658      2.657113      1.984550
    9   H      9    1.2000  1.000     -2.919070      1.332842      2.685854
   10   H     10    1.2000  1.000     -1.096192     -0.195308      2.301911
   11   H     11    1.2000  1.000     -0.119872      1.148283      1.685641
   12   I     12    1.9800  1.000     -3.138148      0.253005     -2.152344
 ------------------------------------------------------------------------------
 GePol: Number of generator spheres                  =      12
 GePol: Total number of spheres                      =      12
 GePol: Number of exposed spheres                    =      12 (100.00%)
 GePol: Number of points                             =    1309
 GePol: Average weight of points                     =       0.13
 GePol: Minimum weight of points                     =   0.24D-07
 GePol: Maximum weight of points                     =    0.17992
 GePol: Number of points with low weight             =      44
 GePol: Fraction of low-weight points (<1% of avg)   =       3.36%
 GePol: Cavity surface area                          =    172.713 Ang**2
 GePol: Cavity volume                                =    161.457 Ang**3
 ------------------------------------------------------------------------------
 Atomic radii for non-electrostatic terms: SMD-CDS.
 ------------------------------------------------------------------------------
 PCM non-electrostatic energy =        -0.0040892377 Hartrees.
 Nuclear repulsion after PCM non-electrostatic terms =      492.0895381856 Hartrees.
 Leave Link  301 at Tue Jun 11 17:46:40 2024, MaxMem=  8589934592 cpu:               3.1 elap:               0.1
 (Enter /opt/packages/gaussian/g16RevC.01/g16/l302.exe)
 NPDir=0 NMtPBC=     1 NCelOv=     1 NCel=       1 NClECP=     1 NCelD=      1
         NCelK=      1 NCelE2=     1 NClLst=     1 CellRange=     0.0.
 One-electron integrals computed using PRISM.
   1 Symmetry operations used in ECPInt.
 ECPInt:  NShTT=    6903 NPrTT=   20907 LenC2=    6688 LenP2D=   16258.
 LDataN:  DoStor=T MaxTD1= 7 Len=  274
 NBasis=   323 RedAO= T EigKep=  6.03D-05  NBF=   323
 NBsUse=   323 1.00D-06 EigRej= -1.00D+00 NBFU=   323
 Precomputing XC quadrature grid using
 IXCGrd= 4 IRadAn=           5 IRanWt=          -1 IRanGd=           0 AccXCQ= 0.00D+00.
 Defaulting to unpruned grid for atomic number  53.
 Generated NRdTot=       0 NPtTot=           0 NUsed=           0 NTot=          32
 NSgBfM=   370   370   370   370   370 MxSgAt=    12 MxSgA2=    12.
 Leave Link  302 at Tue Jun 11 17:46:41 2024, MaxMem=  8589934592 cpu:              10.0 elap:               0.3
 (Enter /opt/packages/gaussian/g16RevC.01/g16/l303.exe)
 DipDrv:  MaxL=1.
 Leave Link  303 at Tue Jun 11 17:46:41 2024, MaxMem=  8589934592 cpu:               0.9 elap:               0.1
 (Enter /opt/packages/gaussian/g16RevC.01/g16/l401.exe)
 ExpMin= 7.49D-02 ExpMax= 2.70D+04 ExpMxC= 9.22D+02 IAcc=3 IRadAn=         5 AccDes= 0.00D+00
 Harris functional with IExCor=  402 and IRadAn=       5 diagonalized for initial guess.
 HarFok:  IExCor=  402 AccDes= 0.00D+00 IRadAn=         5 IDoV= 1 UseB2=F ITyADJ=14
 ICtDFT=  3500011 ScaDFX=  1.000000  1.000000  1.000000  1.000000
 Defaulting to unpruned grid for atomic number  53.
 FoFCou: FMM=F IPFlag=           0 FMFlag=      100000 FMFlg1=           0
         NFxFlg=           0 DoJE=T BraDBF=F KetDBF=T FulRan=T
         wScrn=  0.000000 ICntrl=       500 IOpCl=  0 I1Cent=   200000004 NGrid=           0
         NMat0=    1 NMatS0=      1 NMatT0=    0 NMatD0=    1 NMtDS0=    0 NMtDT0=    0
 Symmetry not used in FoFCou.
 Harris En= -658.021018989601    
 JPrj=0 DoOrth=F DoCkMO=F.
 Leave Link  401 at Tue Jun 11 17:46:41 2024, MaxMem=  8589934592 cpu:              14.6 elap:               0.5
 (Enter /opt/packages/gaussian/g16RevC.01/g16/l502.exe)
 Keep R1 ints in memory in canonical form, NReq=1406080206.
 FoFCou: FMM=F IPFlag=           0 FMFlag=           0 FMFlg1=           0
         NFxFlg=           0 DoJE=F BraDBF=F KetDBF=F FulRan=T
         wScrn=  0.000000 ICntrl=       600 IOpCl=  0 I1Cent=           0 NGrid=           0
         NMat0=    1 NMatS0=  52326 NMatT0=    0 NMatD0=    1 NMtDS0=    0 NMtDT0=    0
 Symmetry not used in FoFCou.
 Two-electron integral symmetry not used.
 Closed shell SCF:
 Using DIIS extrapolation, IDIIS=  1040.
 NGot=  8589934592 LenX=  7220613468 LenY=  7220475386
 Requested convergence on RMS density matrix=1.00D-08 within 128 cycles.
 Requested convergence on MAX density matrix=1.00D-06.
 Requested convergence on             energy=1.00D-06.
 No special actions if energy rises.

 Cycle   1  Pass 1  IDiag  1:
 Defaulting to unpruned grid for atomic number  53.
 Defaulting to unpruned grid for atomic number  53.
 Defaulting to unpruned grid for atomic number  53.
 Defaulting to unpruned grid for atomic number  53.
 Defaulting to unpruned grid for atomic number  53.
 Defaulting to unpruned grid for atomic number  53.
 Defaulting to unpruned grid for atomic number  53.
 Defaulting to unpruned grid for atomic number  53.
 Defaulting to unpruned grid for atomic number  53.
 Defaulting to unpruned grid for atomic number  53.
 Defaulting to unpruned grid for atomic number  53.
 Defaulting to unpruned grid for atomic number  53.
 Defaulting to unpruned grid for atomic number  53.
 Defaulting to unpruned grid for atomic number  53.
 Defaulting to unpruned grid for atomic number  53.
 Defaulting to unpruned grid for atomic number  53.
 Defaulting to unpruned grid for atomic number  53.
 Defaulting to unpruned grid for atomic number  53.
 Defaulting to unpruned grid for atomic number  53.
 Defaulting to unpruned grid for atomic number  53.
 Defaulting to unpruned grid for atomic number  53.
 Defaulting to unpruned grid for atomic number  53.
 Defaulting to unpruned grid for atomic number  53.
 Defaulting to unpruned grid for atomic number  53.
 Defaulting to unpruned grid for atomic number  53.
 Defaulting to unpruned grid for atomic number  53.
 Defaulting to unpruned grid for atomic number  53.
 Defaulting to unpruned grid for atomic number  53.
 Defaulting to unpruned grid for atomic number  53.
 Defaulting to unpruned grid for atomic number  53.
 Defaulting to unpruned grid for atomic number  53.
 Defaulting to unpruned grid for atomic number  53.
 Inv3:  Mode=1 IEnd=     5140443.
 Iteration    1 A*A^-1 deviation from unit magnitude is 2.89D-15 for    500.
 Iteration    1 A*A^-1 deviation from orthogonality  is 1.71D-15 for    318     14.
 Iteration    1 A^-1*A deviation from unit magnitude is 3.11D-15 for    500.
 Iteration    1 A^-1*A deviation from orthogonality  is 2.21D-15 for    364    266.
 E= -657.779698221837    
 DIIS: error= 2.99D-02 at cycle   1 NSaved=   1.
 NSaved= 1 IEnMin= 1 EnMin= -657.779698221837     IErMin= 1 ErrMin= 2.99D-02
 ErrMax= 2.99D-02  0.00D+00 EMaxC= 1.00D-01 BMatC= 3.56D-01 BMatP= 3.56D-01
 IDIUse=3 WtCom= 7.01D-01 WtEn= 2.99D-01
 Coeff-Com:  0.100D+01
 Coeff-En:   0.100D+01
 Coeff:      0.100D+01
 Gap=     0.331 Goal=   None    Shift=    0.000
 GapD=    0.331 DampG=1.000 DampE=0.500 DampFc=0.5000 IDamp=-1.
 Damping current iteration by 5.00D-01
 RMSDP=9.03D-03 MaxDP=9.48D-01              OVMax= 4.37D-01

 Cycle   2  Pass 1  IDiag  1:
 E= -657.789357752009     Delta-E=       -0.009659530172 Rises=F Damp=T
 DIIS: error= 1.61D-02 at cycle   2 NSaved=   2.
 NSaved= 2 IEnMin= 2 EnMin= -657.789357752009     IErMin= 2 ErrMin= 1.61D-02
 ErrMax= 1.61D-02  0.00D+00 EMaxC= 1.00D-01 BMatC= 8.29D-02 BMatP= 3.56D-01
 IDIUse=3 WtCom= 8.39D-01 WtEn= 1.61D-01
 Coeff-Com:  0.281D+00 0.719D+00
 Coeff-En:   0.484D+00 0.516D+00
 Coeff:      0.314D+00 0.686D+00
 Gap=     0.185 Goal=   None    Shift=    0.000
 RMSDP=3.17D-03 MaxDP=3.70D-01 DE=-9.66D-03 OVMax= 3.52D-01

 Cycle   3  Pass 1  IDiag  1:
 E= -657.986167024310     Delta-E=       -0.196809272301 Rises=F Damp=F
 DIIS: error= 1.46D-02 at cycle   3 NSaved=   3.
 NSaved= 3 IEnMin= 3 EnMin= -657.986167024310     IErMin= 3 ErrMin= 1.46D-02
 ErrMax= 1.46D-02  0.00D+00 EMaxC= 1.00D-01 BMatC= 5.66D-02 BMatP= 8.29D-02
 IDIUse=3 WtCom= 8.54D-01 WtEn= 1.46D-01
 Coeff-Com:  0.101D+00 0.450D+00 0.449D+00
 Coeff-En:   0.000D+00 0.000D+00 0.100D+01
 Coeff:      0.860D-01 0.384D+00 0.530D+00
 Gap=     0.181 Goal=   None    Shift=    0.000
 RMSDP=6.74D-04 MaxDP=2.61D-02 DE=-1.97D-01 OVMax= 7.90D-02

 Cycle   4  Pass 1  IDiag  1:
 E= -658.020080243537     Delta-E=       -0.033913219227 Rises=F Damp=F
 DIIS: error= 6.36D-03 at cycle   4 NSaved=   4.
 NSaved= 4 IEnMin= 4 EnMin= -658.020080243537     IErMin= 4 ErrMin= 6.36D-03
 ErrMax= 6.36D-03  0.00D+00 EMaxC= 1.00D-01 BMatC= 1.51D-02 BMatP= 5.66D-02
 IDIUse=3 WtCom= 9.36D-01 WtEn= 6.36D-02
 Coeff-Com:  0.366D-03 0.860D-01 0.352D+00 0.561D+00
 Coeff-En:   0.000D+00 0.000D+00 0.259D+00 0.741D+00
 Coeff:      0.343D-03 0.806D-01 0.346D+00 0.573D+00
 Gap=     0.185 Goal=   None    Shift=    0.000
 RMSDP=2.93D-04 MaxDP=1.28D-02 DE=-3.39D-02 OVMax= 3.07D-02

 Cycle   5  Pass 1  IDiag  1:
 E= -658.032040272564     Delta-E=       -0.011960029027 Rises=F Damp=F
 DIIS: error= 1.26D-03 at cycle   5 NSaved=   5.
 NSaved= 5 IEnMin= 5 EnMin= -658.032040272564     IErMin= 5 ErrMin= 1.26D-03
 ErrMax= 1.26D-03  0.00D+00 EMaxC= 1.00D-01 BMatC= 6.92D-04 BMatP= 1.51D-02
 IDIUse=3 WtCom= 9.87D-01 WtEn= 1.26D-02
 Coeff-Com: -0.531D-02 0.175D-01 0.163D+00 0.324D+00 0.501D+00
 Coeff-En:   0.000D+00 0.000D+00 0.000D+00 0.000D+00 0.100D+01
 Coeff:     -0.524D-02 0.173D-01 0.161D+00 0.320D+00 0.507D+00
 Gap=     0.184 Goal=   None    Shift=    0.000
 RMSDP=6.70D-05 MaxDP=2.78D-03 DE=-1.20D-02 OVMax= 5.14D-03

 Cycle   6  Pass 1  IDiag  1:
 E= -658.032534686966     Delta-E=       -0.000494414403 Rises=F Damp=F
 DIIS: error= 3.95D-04 at cycle   6 NSaved=   6.
 NSaved= 6 IEnMin= 6 EnMin= -658.032534686966     IErMin= 6 ErrMin= 3.95D-04
 ErrMax= 3.95D-04  0.00D+00 EMaxC= 1.00D-01 BMatC= 4.35D-05 BMatP= 6.92D-04
 IDIUse=3 WtCom= 9.96D-01 WtEn= 3.95D-03
 Coeff-Com: -0.135D-02-0.244D-02 0.300D-01 0.721D-01 0.236D+00 0.665D+00
 Coeff-En:   0.000D+00 0.000D+00 0.000D+00 0.000D+00 0.340D-02 0.997D+00
 Coeff:     -0.134D-02-0.243D-02 0.299D-01 0.718D-01 0.235D+00 0.667D+00
 Gap=     0.184 Goal=   None    Shift=    0.000
 RMSDP=2.01D-05 MaxDP=1.37D-03 DE=-4.94D-04 OVMax= 1.75D-03

 Cycle   7  Pass 1  IDiag  1:
 E= -658.032571733350     Delta-E=       -0.000037046384 Rises=F Damp=F
 DIIS: error= 8.69D-05 at cycle   7 NSaved=   7.
 NSaved= 7 IEnMin= 7 EnMin= -658.032571733350     IErMin= 7 ErrMin= 8.69D-05
 ErrMax= 8.69D-05  0.00D+00 EMaxC= 1.00D-01 BMatC= 2.28D-06 BMatP= 4.35D-05
 IDIUse=1 WtCom= 1.00D+00 WtEn= 0.00D+00
 Coeff-Com: -0.324D-04-0.219D-02 0.606D-02 0.150D-01 0.657D-01 0.264D+00
 Coeff-Com:  0.652D+00
 Coeff:     -0.324D-04-0.219D-02 0.606D-02 0.150D-01 0.657D-01 0.264D+00
 Coeff:      0.652D+00
 Gap=     0.184 Goal=   None    Shift=    0.000
 RMSDP=3.62D-06 MaxDP=1.16D-04 DE=-3.70D-05 OVMax= 3.44D-04

 Cycle   8  Pass 1  IDiag  1:
 E= -658.032573401452     Delta-E=       -0.000001668102 Rises=F Damp=F
 DIIS: error= 1.67D-05 at cycle   8 NSaved=   8.
 NSaved= 8 IEnMin= 8 EnMin= -658.032573401452     IErMin= 8 ErrMin= 1.67D-05
 ErrMax= 1.67D-05  0.00D+00 EMaxC= 1.00D-01 BMatC= 1.91D-07 BMatP= 2.28D-06
 IDIUse=1 WtCom= 1.00D+00 WtEn= 0.00D+00
 Coeff-Com:  0.191D-03-0.611D-03-0.196D-03-0.142D-02 0.361D-02 0.442D-01
 Coeff-Com:  0.266D+00 0.688D+00
 Coeff:      0.191D-03-0.611D-03-0.196D-03-0.142D-02 0.361D-02 0.442D-01
 Coeff:      0.266D+00 0.688D+00
 Gap=     0.184 Goal=   None    Shift=    0.000
 RMSDP=2.46D-06 MaxDP=1.99D-04 DE=-1.67D-06 OVMax= 1.81D-04

 Cycle   9  Pass 1  IDiag  1:
 E= -658.032573558916     Delta-E=       -0.000000157464 Rises=F Damp=F
 DIIS: error= 5.61D-06 at cycle   9 NSaved=   9.
 NSaved= 9 IEnMin= 9 EnMin= -658.032573558916     IErMin= 9 ErrMin= 5.61D-06
 ErrMax= 5.61D-06  0.00D+00 EMaxC= 1.00D-01 BMatC= 9.01D-09 BMatP= 1.91D-07
 IDIUse=1 WtCom= 1.00D+00 WtEn= 0.00D+00
 Coeff-Com:  0.288D-04-0.707D-04-0.261D-03-0.119D-02-0.202D-02-0.410D-02
 Coeff-Com:  0.311D-01 0.213D+00 0.763D+00
 Coeff:      0.288D-04-0.707D-04-0.261D-03-0.119D-02-0.202D-02-0.410D-02
 Coeff:      0.311D-01 0.213D+00 0.763D+00
 Gap=     0.184 Goal=   None    Shift=    0.000
 RMSDP=3.50D-07 MaxDP=2.69D-05 DE=-1.57D-07 OVMax= 2.43D-05

 Cycle  10  Pass 1  IDiag  1:
 E= -658.032573567605     Delta-E=       -0.000000008689 Rises=F Damp=F
 DIIS: error= 8.49D-07 at cycle  10 NSaved=  10.
 NSaved=10 IEnMin=10 EnMin= -658.032573567605     IErMin=10 ErrMin= 8.49D-07
 ErrMax= 8.49D-07  0.00D+00 EMaxC= 1.00D-01 BMatC= 3.52D-10 BMatP= 9.01D-09
 IDIUse=1 WtCom= 1.00D+00 WtEn= 0.00D+00
 Coeff-Com:  0.216D-05-0.434D-05-0.798D-04-0.360D-03-0.595D-03-0.235D-02
 Coeff-Com:  0.235D-02 0.506D-01 0.253D+00 0.697D+00
 Coeff:      0.216D-05-0.434D-05-0.798D-04-0.360D-03-0.595D-03-0.235D-02
 Coeff:      0.235D-02 0.506D-01 0.253D+00 0.697D+00
 Gap=     0.184 Goal=   None    Shift=    0.000
 RMSDP=7.21D-08 MaxDP=4.74D-06 DE=-8.69D-09 OVMax= 5.15D-06

 Cycle  11  Pass 1  IDiag  1:
 E= -658.032573567824     Delta-E=       -0.000000000219 Rises=F Damp=F
 DIIS: error= 2.73D-07 at cycle  11 NSaved=  11.
 NSaved=11 IEnMin=11 EnMin= -658.032573567824     IErMin=11 ErrMin= 2.73D-07
 ErrMax= 2.73D-07  0.00D+00 EMaxC= 1.00D-01 BMatC= 4.76D-11 BMatP= 3.52D-10
 IDIUse=1 WtCom= 1.00D+00 WtEn= 0.00D+00
 Coeff-Com: -0.316D-05 0.731D-05-0.951D-05-0.304D-04-0.801D-04-0.865D-03
 Coeff-Com: -0.323D-02-0.482D-02 0.758D-02 0.271D+00 0.730D+00
 Coeff:     -0.316D-05 0.731D-05-0.951D-05-0.304D-04-0.801D-04-0.865D-03
 Coeff:     -0.323D-02-0.482D-02 0.758D-02 0.271D+00 0.730D+00
 Gap=     0.184 Goal=   None    Shift=    0.000
 RMSDP=2.10D-08 MaxDP=1.24D-06 DE=-2.19D-10 OVMax= 1.75D-06

 Cycle  12  Pass 1  IDiag  1:
 E= -658.032573567861     Delta-E=       -0.000000000037 Rises=F Damp=F
 DIIS: error= 5.43D-08 at cycle  12 NSaved=  12.
 NSaved=12 IEnMin=12 EnMin= -658.032573567861     IErMin=12 ErrMin= 5.43D-08
 ErrMax= 5.43D-08  0.00D+00 EMaxC= 1.00D-01 BMatC= 1.21D-12 BMatP= 4.76D-11
 IDIUse=1 WtCom= 1.00D+00 WtEn= 0.00D+00
 Coeff-Com: -0.797D-06 0.215D-05-0.784D-06-0.323D-05-0.164D-04-0.211D-03
 Coeff-Com: -0.996D-03-0.247D-02-0.354D-02 0.707D-01 0.229D+00 0.707D+00
 Coeff:     -0.797D-06 0.215D-05-0.784D-06-0.323D-05-0.164D-04-0.211D-03
 Coeff:     -0.996D-03-0.247D-02-0.354D-02 0.707D-01 0.229D+00 0.707D+00
 Gap=     0.184 Goal=   None    Shift=    0.000
 RMSDP=6.26D-09 MaxDP=4.56D-07 DE=-3.68D-11 OVMax= 5.01D-07

 Error on total polarization charges =  0.03503
 SCF Done:  E(RB3LYP) =  -658.032573568     A.U. after   12 cycles
            NFock= 12  Conv=0.63D-08     -V/T= 2.3938
 KE= 4.721101492069D+02 PE=-2.457766132010D+03 EE= 8.355338710492D+02
 SMD-CDS (non-electrostatic) energy       (kcal/mol) =      -2.57
 (included in total energy above)
 Leave Link  502 at Tue Jun 11 17:47:06 2024, MaxMem=  8589934592 cpu:             347.9 elap:              24.3
 (Enter /opt/packages/gaussian/g16RevC.01/g16/l601.exe)
 Copying SCF densities to generalized density rwf, IOpCl= 0 IROHF=0.

 **********************************************************************

            Population analysis using the SCF Density.

 **********************************************************************

 Alpha  occ. eigenvalues --  -19.12281 -19.12280 -14.38654 -10.29668 -10.29665
 Alpha  occ. eigenvalues --  -10.19493 -10.19472  -6.86875  -4.89729  -4.87938
 Alpha  occ. eigenvalues --   -4.87912  -1.94474  -1.93891  -1.93876  -1.92352
 Alpha  occ. eigenvalues --   -1.92351  -1.08016  -1.06421  -0.95658  -0.80851
 Alpha  occ. eigenvalues --   -0.71025  -0.69837  -0.62424  -0.54561  -0.50739
 Alpha  occ. eigenvalues --   -0.48601  -0.46699  -0.42899  -0.42711  -0.42617
 Alpha  occ. eigenvalues --   -0.42287  -0.40180  -0.35209  -0.32464  -0.30178
 Alpha  occ. eigenvalues --   -0.27807  -0.26957  -0.25853
 Alpha virt. eigenvalues --   -0.07442  -0.02516   0.01300   0.03892   0.07900
 Alpha virt. eigenvalues --    0.09475   0.10144   0.13306   0.13433   0.14720
 Alpha virt. eigenvalues --    0.15067   0.16100   0.16253   0.16955   0.18160
 Alpha virt. eigenvalues --    0.20073   0.20201   0.20244   0.24051   0.25793
 Alpha virt. eigenvalues --    0.26147   0.26564   0.27033   0.29152   0.30984
 Alpha virt. eigenvalues --    0.31333   0.32120   0.34832   0.36682   0.38505
 Alpha virt. eigenvalues --    0.39538   0.39927   0.39967   0.42458   0.42685
 Alpha virt. eigenvalues --    0.44020   0.45305   0.46730   0.48163   0.49930
 Alpha virt. eigenvalues --    0.50669   0.51210   0.53199   0.54218   0.56322
 Alpha virt. eigenvalues --    0.58564   0.59043   0.64771   0.65268   0.65773
 Alpha virt. eigenvalues --    0.67213   0.69263   0.71195   0.75159   0.76419
 Alpha virt. eigenvalues --    0.76855   0.80153   0.82983   0.83894   0.85510
 Alpha virt. eigenvalues --    0.87312   0.87424   0.87723   0.89620   0.90177
 Alpha virt. eigenvalues --    0.92546   0.92933   0.94290   0.97234   0.98616
 Alpha virt. eigenvalues --    0.99358   1.01245   1.02868   1.04250   1.05183
 Alpha virt. eigenvalues --    1.05272   1.06915   1.09422   1.11736   1.12547
 Alpha virt. eigenvalues --    1.15535   1.17534   1.21307   1.23229   1.25446
 Alpha virt. eigenvalues --    1.26794   1.30113   1.32165   1.33358   1.34740
 Alpha virt. eigenvalues --    1.35914   1.36861   1.37046   1.37553   1.38374
 Alpha virt. eigenvalues --    1.39776   1.41183   1.41813   1.46289   1.46702
 Alpha virt. eigenvalues --    1.47036   1.50252   1.51170   1.54421   1.60272
 Alpha virt. eigenvalues --    1.60877   1.63484   1.65390   1.68603   1.69051
 Alpha virt. eigenvalues --    1.69185   1.73983   1.77446   1.78942   1.85894
 Alpha virt. eigenvalues --    1.93795   1.94504   1.94840   1.96012   2.01406
 Alpha virt. eigenvalues --    2.06631   2.09582   2.10988   2.17422   2.18637
 Alpha virt. eigenvalues --    2.28107   2.29455   2.31500   2.31576   2.36054
 Alpha virt. eigenvalues --    2.40426   2.43316   2.51263   2.52386   2.55455
 Alpha virt. eigenvalues --    2.57728   2.59306   2.61857   2.62661   2.64832
 Alpha virt. eigenvalues --    2.66422   2.72357   2.72811   2.77001   2.77647
 Alpha virt. eigenvalues --    2.82508   2.84399   2.84487   2.86905   2.91939
 Alpha virt. eigenvalues --    2.93527   2.95207   2.98898   2.99635   3.01733
 Alpha virt. eigenvalues --    3.01923   3.03099   3.03501   3.05250   3.06337
 Alpha virt. eigenvalues --    3.07533   3.09412   3.13389   3.14683   3.16346
 Alpha virt. eigenvalues --    3.16688   3.16920   3.19601   3.19742   3.21487
 Alpha virt. eigenvalues --    3.22979   3.26400   3.26583   3.26659   3.32489
 Alpha virt. eigenvalues --    3.34042   3.34156   3.38332   3.40660   3.40953
 Alpha virt. eigenvalues --    3.46078   3.46455   3.50793   3.52156   3.53290
 Alpha virt. eigenvalues --    3.56345   3.57833   3.66390   3.67081   3.67316
 Alpha virt. eigenvalues --    3.69955   3.76238   3.78656   3.82662   3.83932
 Alpha virt. eigenvalues --    3.84124   3.86310   3.86703   3.90778   3.95792
 Alpha virt. eigenvalues --    4.01338   4.04959   4.06651   4.08526   4.11603
 Alpha virt. eigenvalues --    4.15917   4.16022   4.19210   4.21406   4.22041
 Alpha virt. eigenvalues --    4.28589   4.33665   4.33908   4.36651   4.36762
 Alpha virt. eigenvalues --    4.37786   4.47568   4.56249   4.58138   4.58193
 Alpha virt. eigenvalues --    4.60341   4.62277   4.66959   4.69421   4.70672
 Alpha virt. eigenvalues --    4.82859   4.82998   4.94214   4.94387   4.96391
 Alpha virt. eigenvalues --    4.96747   5.00392   5.02469   5.04258   5.07140
 Alpha virt. eigenvalues --    5.14634   5.18190   5.19415   5.19914   5.26328
 Alpha virt. eigenvalues --    5.27689   5.27711   5.29128   5.33571   5.39037
 Alpha virt. eigenvalues --    5.47512   5.50450   5.51027   5.52110   5.58063
 Alpha virt. eigenvalues --    5.58553   5.59619   5.69125   5.72343   5.78663
 Alpha virt. eigenvalues --    5.83665   5.93137   6.21042   6.21179   6.34866
 Alpha virt. eigenvalues --    6.36013   6.38896   6.45993   6.52466   6.52585
 Alpha virt. eigenvalues --    6.71009   6.79589   6.81955   6.85434   7.00829
 Alpha virt. eigenvalues --    7.02549   7.08885   7.10535  22.98521  23.30761
 Alpha virt. eigenvalues --   23.37937  23.47704  32.39376  34.46693  34.51264
 Alpha virt. eigenvalues --   34.78587  42.76555  43.87931  43.90975 117.79432
          Condensed to atoms (all electrons):
               1          2          3          4          5          6
     1  N    6.868921   0.290138  -0.113568  -0.113273   0.289966  -0.129898
     2  C    0.290138   4.659425   0.276485  -0.004860  -0.067116  -0.001046
     3  C   -0.113568   0.276485   5.234589   0.021010  -0.004835   0.004517
     4  C   -0.113273  -0.004860   0.021010   5.234202   0.276884  -0.082464
     5  C    0.289966  -0.067116  -0.004835   0.276884   4.659215   0.723780
     6  O   -0.129898  -0.001046   0.004517  -0.082464   0.723780   7.792344
     7  O   -0.129847   0.723971  -0.082657   0.004545  -0.001054  -0.000255
     8  H    0.002537  -0.016610   0.381891  -0.008944   0.001230  -0.000046
     9  H    0.003248  -0.019815   0.386623  -0.010287   0.002333  -0.000089
    10  H    0.002558   0.001218  -0.008781   0.381810  -0.016751   0.002675
    11  H    0.003223   0.002318  -0.010317   0.386786  -0.019819   0.003167
    12  I    0.214338  -0.052803   0.008757   0.008717  -0.052942   0.010569
               7          8          9         10         11         12
     1  N   -0.129847   0.002537   0.003248   0.002558   0.003223   0.214338
     2  C    0.723971  -0.016610  -0.019815   0.001218   0.002318  -0.052803
     3  C   -0.082657   0.381891   0.386623  -0.008781  -0.010317   0.008757
     4  C    0.004545  -0.008944  -0.010287   0.381810   0.386786   0.008717
     5  C   -0.001054   0.001230   0.002333  -0.016751  -0.019819  -0.052942
     6  O   -0.000255  -0.000046  -0.000089   0.002675   0.003167   0.010569
     7  O    7.792287   0.002665   0.003196  -0.000047  -0.000089   0.010552
     8  H    0.002665   0.550044  -0.014497   0.001646  -0.008469  -0.000119
     9  H    0.003196  -0.014497   0.550000  -0.008499   0.001058  -0.000154
    10  H   -0.000047   0.001646  -0.008499   0.549948  -0.014537  -0.000116
    11  H   -0.000089  -0.008469   0.001058  -0.014537   0.549781  -0.000157
    12  I    0.010552  -0.000119  -0.000154  -0.000116  -0.000157  24.679944
 Mulliken charges:
               1
     1  N   -0.188342
     2  C    0.208695
     3  C   -0.093715
     4  C   -0.094127
     5  C    0.209110
     6  O   -0.323254
     7  O   -0.323268
     8  H    0.108673
     9  H    0.106884
    10  H    0.108876
    11  H    0.107055
    12  I    0.173414
 Sum of Mulliken charges =   0.00000
 Mulliken charges with hydrogens summed into heavy atoms:
               1
     1  N   -0.188342
     2  C    0.208695
     3  C    0.121842
     4  C    0.121803
     5  C    0.209110
     6  O   -0.323254
     7  O   -0.323268
    12  I    0.173414
 Electronic spatial extent (au):  <R**2>=           3042.1320
 Charge=              0.0000 electrons
 Dipole moment (field-independent basis, Debye):
    X=              0.9043    Y=              0.5390    Z=              2.4254  Tot=              2.6440
 Quadrupole moment (field-independent basis, Debye-Ang):
   XX=            -79.6118   YY=            -70.2335   ZZ=            -54.5783
   XY=              9.7282   XZ=              0.6887   YZ=              2.2892
 Traceless Quadrupole moment (field-independent basis, Debye-Ang):
   XX=            -11.4706   YY=             -2.0923   ZZ=             13.5629
   XY=              9.7282   XZ=              0.6887   YZ=              2.2892
 Octapole moment (field-independent basis, Debye-Ang**2):
  XXX=            584.0888  YYY=           -132.2620  ZZZ=             83.0706  XYY=            193.0843
  XXY=            -97.2392  XXZ=             17.6665  XZZ=            130.0901  YZZ=            -38.5280
  YYZ=             38.5032  XYZ=             -3.8164
 Hexadecapole moment (field-independent basis, Debye-Ang**3):
 XXXX=          -3463.0063 YYYY=           -486.1686 ZZZZ=           -967.6544 XXXY=            659.8918
 XXXZ=           -303.7396 YYYX=            450.8318 YYYZ=            -54.2157 ZZZX=           -307.1453
 ZZZY=            -48.5833 XXYY=           -718.4827 XXZZ=           -562.4644 YYZZ=           -254.0696
 XXYZ=            -17.9921 YYXZ=           -133.0443 ZZXY=            126.9323
 N-N= 4.920895381856D+02 E-N=-2.457766133231D+03  KE= 4.721101492069D+02
 No NMR shielding tensors so no spin-rotation constants.
 Leave Link  601 at Tue Jun 11 17:47:07 2024, MaxMem=  8589934592 cpu:               3.2 elap:               0.1
 (Enter /opt/packages/gaussian/g16RevC.01/g16/l9999.exe)
 Unable to Open any file for archive entry.
 1\1\GINC-R300\SP\RB3LYP\def2TZVPP\C4H4I1N1O2\BIM2\11-Jun-2024\0\\#p b3
 lyp def2tzvpp scf=maxcycle=128 nosymm scrf=(smd,solvent=propylethanoat
 e) empiricaldispersion=gd3bj\\Title Card Required\\0,1\N,0,-2.447881,0
 .677306,-0.308894\C,0,-3.107235,1.539274,0.568702\C,0,-2.27843,1.61140
 5,1.838616\C,0,-1.102128,0.662461,1.615317\C,0,-1.271641,0.128426,0.20
 4248\O,0,-0.555203,-0.628111,-0.390499\O,0,-4.136431,2.105666,0.325097
 \H,0,-1.974658,2.657113,1.98455\H,0,-2.91907,1.332842,2.685854\H,0,-1.
 096192,-0.195308,2.301911\H,0,-0.119872,1.148283,1.685641\I,0,-3.13814
 8,0.253005,-2.152344\\Version=ES64L-G16RevC.01\HF=-658.0325736\RMSD=6.
 260e-09\Dipole=0.3557816,0.2120463,0.9542257\Quadrupole=-8.5281028,-1.
 5555885,10.0836913,7.2327028,0.5120249,1.7019991\PG=C01 [X(C4H4I1N1O2)
 ]\\@
 The archive entry for this job was punched.


 IF YOU WISH TO UNDERSTAND THE FRAGRANCE OF THE ROSE, 
 OR THE TENACITY OF THE OAK; 
 IF YOU ARE NOT SATISFIED UNTIL YOU KNOW THE SECRET PATHS 
 BY WHICH THE SUNSHINE AND THE AIR ACHIEVE THESE WONDERS; 
 IF YOU WISH TO SEE THE PATTERN WHICH UNDERLIES ONE LARGE FIELD OF 
 HUMAN EXPERIENCE AND HUMAN MEASUREMENT, THEN TAKE UP CHEMISTRY.

                                         -- C. A. COULSON, 1973.
 Job cpu time:       0 days  0 hours  6 minutes 24.3 seconds.
 Elapsed time:       0 days  0 hours  0 minutes 25.6 seconds.
 File lengths (MBytes):  RWF=     73 Int=      0 D2E=      0 Chk=      8 Scr=      1
 Normal termination of Gaussian 16 at Tue Jun 11 17:47:07 2024.
