 Entering Gaussian System, Link 0=g16
 Initial command:
 /ihome/crc/install/gaussian/c01/avx2/tar/g16/l1.exe "/scratch/slurm-18039821/Gau-29313.inp" -scrdir="/scratch/slurm-18039821/"
 Entering Link 1 = /ihome/crc/install/gaussian/c01/avx2/tar/g16/l1.exe PID=     29314.
  
 Copyright (c) 1988-2019, Gaussian, Inc.  All Rights Reserved.
  
 This is part of the Gaussian(R) 16 program.  It is based on
 the Gaussian(R) 09 system (copyright 2009, Gaussian, Inc.),
 the Gaussian(R) 03 system (copyright 2003, Gaussian, Inc.),
 the Gaussian(R) 98 system (copyright 1998, Gaussian, Inc.),
 the Gaussian(R) 94 system (copyright 1995, Gaussian, Inc.),
 the Gaussian 92(TM) system (copyright 1992, Gaussian, Inc.),
 the Gaussian 90(TM) system (copyright 1990, Gaussian, Inc.),
 the Gaussian 88(TM) system (copyright 1988, Gaussian, Inc.),
 the Gaussian 86(TM) system (copyright 1986, Carnegie Mellon
 University), and the Gaussian 82(TM) system (copyright 1983,
 Carnegie Mellon University). Gaussian is a federally registered
 trademark of Gaussian, Inc.
  
 This software contains proprietary and confidential information,
 including trade secrets, belonging to Gaussian, Inc.
  
 This software is provided under written license and may be
 used, copied, transmitted, or stored only in accord with that
 written license.
  
 The following legend is applicable only to US Government
 contracts under FAR:
  
                    RESTRICTED RIGHTS LEGEND
  
 Use, reproduction and disclosure by the US Government is
 subject to restrictions as set forth in subparagraphs (a)
 and (c) of the Commercial Computer Software - Restricted
 Rights clause in FAR 52.227-19.
  
 Gaussian, Inc.
 340 Quinnipiac St., Bldg. 40, Wallingford CT 06492
  
  
 ---------------------------------------------------------------
 Warning -- This program may not be used in any manner that
 competes with the business of Gaussian, Inc. or will provide
 assistance to any competitor of Gaussian, Inc.  The licensee
 of this program is prohibited from giving any competitor of
 Gaussian, Inc. access to this program.  By using this program,
 the user acknowledges that Gaussian, Inc. is engaged in the
 business of creating and licensing software in the field of
 computational chemistry and represents and warrants to the
 licensee that it is not a competitor of Gaussian, Inc. and that
 it will not use this program in any manner prohibited above.
 ---------------------------------------------------------------
  

 Cite this work as:
 Gaussian 16, Revision C.01,
 M. J. Frisch, G. W. Trucks, H. B. Schlegel, G. E. Scuseria, 
 M. A. Robb, J. R. Cheeseman, G. Scalmani, V. Barone, 
 G. A. Petersson, H. Nakatsuji, X. Li, M. Caricato, A. V. Marenich, 
 J. Bloino, B. G. Janesko, R. Gomperts, B. Mennucci, H. P. Hratchian, 
 J. V. Ortiz, A. F. Izmaylov, J. L. Sonnenberg, D. Williams-Young, 
 F. Ding, F. Lipparini, F. Egidi, J. Goings, B. Peng, A. Petrone, 
 T. Henderson, D. Ranasinghe, V. G. Zakrzewski, J. Gao, N. Rega, 
 G. Zheng, W. Liang, M. Hada, M. Ehara, K. Toyota, R. Fukuda, 
 J. Hasegawa, M. Ishida, T. Nakajima, Y. Honda, O. Kitao, H. Nakai, 
 T. Vreven, K. Throssell, J. A. Montgomery, Jr., J. E. Peralta, 
 F. Ogliaro, M. J. Bearpark, J. J. Heyd, E. N. Brothers, K. N. Kudin, 
 V. N. Staroverov, T. A. Keith, R. Kobayashi, J. Normand, 
 K. Raghavachari, A. P. Rendell, J. C. Burant, S. S. Iyengar, 
 J. Tomasi, M. Cossi, J. M. Millam, M. Klene, C. Adamo, R. Cammi, 
 J. W. Ochterski, R. L. Martin, K. Morokuma, O. Farkas, 
 J. B. Foresman, and D. J. Fox, Gaussian, Inc., Wallingford CT, 2019.
 
 ******************************************
 Gaussian 16:  ES64L-G16RevC.01  3-Jul-2019
                12-Feb-2025 
 ******************************************
 %nprocshared=32
 Will use up to   32 processors via shared memory.
 %mem=54GB
 ----------------------------------------------------------------------
 #p b3lyp def2tzvpp scf=maxcycle=128 nosymm scrf=(smd,solvent=propyleth
 anoate) empiricaldispersion=gd3bj
 ----------------------------------------------------------------------
 1/38=1,172=1/1;
 2/12=2,15=1,17=6,18=5,40=1/2;
 3/5=44,7=202,11=2,25=1,30=1,70=32201,72=169,74=-5,124=41/1,2,3;
 4//1;
 5/5=2,7=128,38=5,53=169/2;
 6/7=2,8=2,9=2,10=2,28=1/1;
 99/5=1,9=1/99;
 Leave Link    1 at Wed Feb 12 09:10:21 2025, MaxMem=  7247757312 cpu:               0.4 elap:               0.0
 (Enter /ihome/crc/install/gaussian/c01/avx2/tar/g16/l101.exe)
 ----------------------------
 alkyneCF3_R-ax-R_01_iodi_TS2
 ----------------------------
 Symbolic Z-matrix:
 Charge =  0 Multiplicity = 1
 C                    -2.27437  -3.24211  -0.84318 
 C                    -1.18364  -4.21357  -0.7127 
 C                     0.05827  -3.63479  -0.18158 
 C                    -0.01075  -2.47577   0.51416 
 C                    -1.30927  -1.86171   0.70598 
 N                    -2.35339  -2.16633  -0.13272 
 H                     0.88447  -2.00088   0.90649 
 C                    -3.35784  -3.54383  -1.81788 
 C                    -3.07779  -3.74017  -3.18743 
 C                    -4.11197  -4.15456  -4.03673 
 C                    -5.69929  -4.11061  -2.21174 
 C                    -5.40376  -4.34873  -3.55206 
 H                    -3.9021   -4.29623  -5.09815 
 H                    -6.19627  -4.67027  -4.22962 
 H                    -6.70222  -4.23876  -1.80254 
 C                    -4.67123  -3.70262  -1.374 
 C                    -1.71828  -3.46695  -3.72876 
 C                    -1.13481  -4.33359  -4.66427 
 C                    -0.99534  -2.33882  -3.30672 
 C                     0.1466   -4.08466  -5.15406 
 H                    -1.68009  -5.22196  -4.99042 
 C                     0.2858   -2.09177  -3.79772 
 H                    -1.4215   -1.63141  -2.59235 
 C                     0.86105  -2.96558  -4.72135 
 H                     0.59301  -4.77403  -5.87293 
 H                     0.82244  -1.20666  -3.44944 
 H                     1.86512  -2.77503  -5.1042 
 F                    -4.94073  -3.51802  -0.07655 
 C                     1.33563  -4.36938  -0.423 
 H                     1.25615  -5.40147  -0.04667 
 H                     1.52543  -4.43015  -1.5064 
 H                     2.18448  -3.87169   0.06098 
 C                    -2.88546  -0.43126   1.90119 
 C                    -0.62158  -0.65244   2.73982 
 C                    -3.38767  -0.92013   3.25409 
 H                    -3.55672  -0.73233   1.09489 
 H                    -2.78924   0.66511   1.91458 
 C                    -1.21977  -1.12356   4.06355 
 H                     0.35359  -1.11806   2.5765 
 H                    -0.48155   0.43744   2.7415 
 H                    -3.52777  -2.01823   3.21714 
 H                    -4.3545   -0.44903   3.47564 
 H                    -1.27419  -2.22929   4.06535 
 H                    -0.57066  -0.8018    4.88824 
 N                    -1.55293  -0.99069   1.66449 
 O                    -2.49355  -0.57156   4.2807 
 H                    -1.05973  -4.87793  -1.57198 
 C                     2.53676   6.26489  -2.43005 
 C                     1.96933   5.33302  -1.5941 
 C                     2.77415   4.36027  -0.9356 
 C                     4.17624   4.36134  -1.18664 
 C                     4.73722   5.34466  -2.04938 
 C                     3.93607   6.27942  -2.65516 
 H                     1.90224   6.99837  -2.93002 
 H                     0.88981   5.33138  -1.44311 
 C                     2.22654   3.37027  -0.05276 
 C                     4.98987   3.37241  -0.58889 
 H                     5.81497   5.33153  -2.22312 
 H                     4.37027   7.02883  -3.31879 
 C                     4.45371   2.38621   0.22002 
 C                     3.04775   2.39683   0.48623 
 H                     6.0643    3.37595  -0.78189 
 C                     0.75108   3.42192   0.22594 
 C                    -0.11646   2.45554  -0.24991 
 C                     0.24737   4.51378   1.00912 
 C                    -1.53157   2.58162  -0.06358 
 C                    -1.15527   4.61683   1.231 
 C                     1.10058   5.48152   1.60956 
 C                    -2.02026   3.6515    0.66498 
 C                    -1.66787   5.6907    2.01127 
 C                     0.57914   6.50291   2.36754 
 H                     2.18001   5.40205   1.47844 
 H                    -3.09873   3.75676   0.79844 
 C                    -0.81953   6.61624   2.56551 
 H                    -2.74711   5.75632   2.16288 
 H                     1.24978   7.23103   2.82644 
 H                    -1.2167    7.43581   3.16645 
 S                     2.23545   1.09592   1.41089 
 O                     1.4381    1.77403   2.39523 
 O                     3.20379   0.17385   1.9179 
 S                     0.61736   0.95633  -0.90566 
 O                     1.51393   1.35096  -1.95211 
 O                    -0.43159   0.0561   -1.28581 
 N                     1.35419   0.33707   0.34207 
 C                     5.37391   1.42038   0.74544 
 C                     6.25603   0.67672   1.12048 
 C                    -2.50678   1.7125   -0.65787 
 C                    -3.43806   1.11015  -1.15109 
 C                    -4.48979   0.40099  -1.81542 
 C                    -5.81327   0.391    -1.3292 
 C                    -4.20969  -0.26461  -3.02019 
 C                    -6.81927  -0.269    -2.03053 
 C                    -5.22306  -0.90597  -3.72537 
 H                    -3.18861  -0.24835  -3.40368 
 C                    -6.52674  -0.91473  -3.23098 
 H                    -7.83758  -0.26637  -1.6419 
 H                    -4.98993  -1.40162  -4.6688 
 H                    -7.32106  -1.42218  -3.78035 
 C                     7.25485  -0.23405   1.59223 
 C                     8.61393  -0.0866    1.24683 
 C                     6.8794   -1.3035    2.41967 
 C                     9.5646   -0.98595   1.7195 
 C                     7.83539  -2.19975   2.88916 
 H                     5.82688  -1.41403   2.68335 
 C                     9.17661  -2.04393   2.54178 
 H                     10.61167  -0.85876   1.44411 
 H                     7.52887  -3.02646   3.53181 
 H                     9.92585  -2.74586   2.90986 
 C                     9.03086   1.0557    0.35671 
 F                     8.72419   2.24386   0.88888 
 F                     8.43171   1.00541  -0.83773 
 F                     10.34705   1.05781   0.13251 
 C                    -6.14945   1.12705  -0.05852 
 F                    -5.84523   2.4272   -0.13691 
 F                    -5.48552   0.64438   1.00064 
 F                    -7.4488    1.04828   0.23486 
 I                    -1.97812  -5.6354    0.88315 
 N                    -2.83327  -7.0518    2.76655 
 C                    -3.35788  -8.25339   2.7282 
 C                    -3.96093  -8.69433   4.04477 
 C                    -3.75898  -7.47461   4.93418 
 C                    -3.02172  -6.48549   4.03175 
 O                    -2.6607   -5.37993   4.33992 
 O                    -3.34915  -8.98226   1.6888 
 H                    -5.01481  -8.95799   3.89076 
 H                    -3.4371   -9.59845   4.38857 
 H                    -3.15096  -7.66881   5.82764 
 H                    -4.70042  -7.01355   5.26418 
 C                    -6.39416  -10.17104   1.37788 
 C                    -7.51203  -10.97978   1.31142 
 C                    -7.34504  -12.37643   1.33198 
 C                    -6.05706  -12.89146   1.37489 
 C                    -4.94663  -12.0188   1.38871 
 N                    -5.14632  -10.6878   1.41816 
 H                    -5.90242  -13.96853   1.34696 
 C                    -6.47528  -8.68652   1.46938 
 C                    -7.18546  -8.00348   2.48195 
 C                    -7.11146  -6.60183   2.52458 
 C                    -5.69479  -6.54678   0.57039 
 C                    -6.36868  -5.88198   1.59138 
 H                    -7.63021  -6.07159   3.32444 
 H                    -6.30767  -4.79503   1.65709 
 H                    -5.10527  -6.02812  -0.18474 
 C                    -5.76664  -7.92874   0.53227 
 C                    -8.01654  -8.69881   3.51039 
 C                    -9.2912   -8.19      3.80169 
 C                    -7.5745   -9.8288    4.21695 
 C                    -10.10113  -8.79091   4.76428 
 H                    -9.65891  -7.32058   3.25309 
 C                    -8.38142  -10.42579   5.1832 
 H                    -6.59149  -10.25731   4.01527 
 C                    -9.64867  -9.91105   5.45967 
 H                    -11.09208  -8.38148   4.96739 
 H                    -8.01451  -11.29891   5.72544 
 H                    -10.27998  -10.38213   6.21485 
 F                    -5.12802  -8.5741   -0.44773 
 C                    -8.54607  -13.27322   1.29891 
 H                    -8.26127  -14.33197   1.27371 
 H                    -9.16798  -13.09486   2.18928 
 H                    -9.16722  -13.04913   0.41964 
 C                    -2.64578  -11.82909   0.53246 
 C                    -3.3531   -13.86425   1.64887 
 C                    -1.27023  -12.01322   1.14418 
 H                    -2.8623   -10.76607   0.39356 
 H                    -2.66568  -12.31846  -0.4594 
 C                    -1.93669  -13.97184   2.20056 
 H                    -4.05208  -14.26182   2.3959 
 H                    -3.44475  -14.46461   0.72372 
 H                    -1.2188   -11.46298   2.10337 
 H                    -0.50067  -11.615    0.47015 
 H                    -1.9059   -13.48903   3.19654 
 H                    -1.66185  -15.02867   2.31658 
 N                    -3.65107  -12.46293   1.39037 
 O                    -0.99368  -13.37903   1.34576 
 H                    -8.50575  -10.53249   1.27633 
 H                    -4.15459  -9.83047   1.61188 
 
 ITRead=  0  0  0  0  0  0  0  0  0  0  0  0  0  0  0  0  0  0  0  0
 ITRead=  0  0  0  0  0  0  0  0  0  0  0  0  0  0  0  0  0  0  0  0
 ITRead=  0  0  0  0  0  0  0  0  0  0  0  0  0  0  0  0  0  0  0  0
 ITRead=  0  0  0  0  0  0  0  0  0  0  0  0  0  0  0  0  0  0  0  0
 ITRead=  0  0  0  0  0  0  0  0  0  0  0  0  0  0  0  0  0  0  0  0
 ITRead=  0  0  0  0  0  0  0  0  0  0  0  0  0  0  0  0  0  0  0  0
 ITRead=  0  0  0  0  0  0  0  0  0  0  0  0  0  0  0  0  0  0  0  0
 ITRead=  0  0  0  0  0  0  0  0  0  0  0  0  0  0  0  0  0  0  0  0
 ITRead=  0  0  0  0  0  0  0  0  0  0  0  0  0  0  0  0
 MicOpt= -1 -1 -1 -1 -1 -1 -1 -1 -1 -1 -1 -1 -1 -1 -1 -1 -1 -1 -1 -1
 MicOpt= -1 -1 -1 -1 -1 -1 -1 -1 -1 -1 -1 -1 -1 -1 -1 -1 -1 -1 -1 -1
 MicOpt= -1 -1 -1 -1 -1 -1 -1 -1 -1 -1 -1 -1 -1 -1 -1 -1 -1 -1 -1 -1
 MicOpt= -1 -1 -1 -1 -1 -1 -1 -1 -1 -1 -1 -1 -1 -1 -1 -1 -1 -1 -1 -1
 MicOpt= -1 -1 -1 -1 -1 -1 -1 -1 -1 -1 -1 -1 -1 -1 -1 -1 -1 -1 -1 -1
 MicOpt= -1 -1 -1 -1 -1 -1 -1 -1 -1 -1 -1 -1 -1 -1 -1 -1 -1 -1 -1 -1
 MicOpt= -1 -1 -1 -1 -1 -1 -1 -1 -1 -1 -1 -1 -1 -1 -1 -1 -1 -1 -1 -1
 MicOpt= -1 -1 -1 -1 -1 -1 -1 -1 -1 -1 -1 -1 -1 -1 -1 -1 -1 -1 -1 -1
 MicOpt= -1 -1 -1 -1 -1 -1 -1 -1 -1 -1 -1 -1 -1 -1 -1 -1
 NAtoms=    176 NQM=      176 NQMF=       0 NMMI=      0 NMMIF=      0
                NMic=       0 NMicF=      0.
                    Isotopes and Nuclear Properties:
 (Nuclear quadrupole moments (NQMom) in fm**2, nuclear magnetic moments (NMagM)
  in nuclear magnetons)

  Atom         1           2           3           4           5           6           7           8           9          10
 IAtWgt=          12          12          12          12          12          14           1          12          12          12
 AtmWgt=  12.0000000  12.0000000  12.0000000  12.0000000  12.0000000  14.0030740   1.0078250  12.0000000  12.0000000  12.0000000
 NucSpn=           0           0           0           0           0           2           1           0           0           0
 AtZEff=  -0.0000000  -0.0000000  -0.0000000  -0.0000000  -0.0000000  -0.0000000  -0.0000000  -0.0000000  -0.0000000  -0.0000000
 NQMom=    0.0000000   0.0000000   0.0000000   0.0000000   0.0000000   2.0440000   0.0000000   0.0000000   0.0000000   0.0000000
 NMagM=    0.0000000   0.0000000   0.0000000   0.0000000   0.0000000   0.4037610   2.7928460   0.0000000   0.0000000   0.0000000
 AtZNuc=   6.0000000   6.0000000   6.0000000   6.0000000   6.0000000   7.0000000   1.0000000   6.0000000   6.0000000   6.0000000

  Atom        11          12          13          14          15          16          17          18          19          20
 IAtWgt=          12          12           1           1           1          12          12          12          12          12
 AtmWgt=  12.0000000  12.0000000   1.0078250   1.0078250   1.0078250  12.0000000  12.0000000  12.0000000  12.0000000  12.0000000
 NucSpn=           0           0           1           1           1           0           0           0           0           0
 AtZEff=  -0.0000000  -0.0000000  -0.0000000  -0.0000000  -0.0000000  -0.0000000  -0.0000000  -0.0000000  -0.0000000  -0.0000000
 NQMom=    0.0000000   0.0000000   0.0000000   0.0000000   0.0000000   0.0000000   0.0000000   0.0000000   0.0000000   0.0000000
 NMagM=    0.0000000   0.0000000   2.7928460   2.7928460   2.7928460   0.0000000   0.0000000   0.0000000   0.0000000   0.0000000
 AtZNuc=   6.0000000   6.0000000   1.0000000   1.0000000   1.0000000   6.0000000   6.0000000   6.0000000   6.0000000   6.0000000

  Atom        21          22          23          24          25          26          27          28          29          30
 IAtWgt=           1          12           1          12           1           1           1          19          12           1
 AtmWgt=   1.0078250  12.0000000   1.0078250  12.0000000   1.0078250   1.0078250   1.0078250  18.9984032  12.0000000   1.0078250
 NucSpn=           1           0           1           0           1           1           1           1           0           1
 AtZEff=  -0.0000000  -0.0000000  -0.0000000  -0.0000000  -0.0000000  -0.0000000  -0.0000000  -0.0000000  -0.0000000  -0.0000000
 NQMom=    0.0000000   0.0000000   0.0000000   0.0000000   0.0000000   0.0000000   0.0000000   0.0000000   0.0000000   0.0000000
 NMagM=    2.7928460   0.0000000   2.7928460   0.0000000   2.7928460   2.7928460   2.7928460   2.6288670   0.0000000   2.7928460
 AtZNuc=   1.0000000   6.0000000   1.0000000   6.0000000   1.0000000   1.0000000   1.0000000   9.0000000   6.0000000   1.0000000

  Atom        31          32          33          34          35          36          37          38          39          40
 IAtWgt=           1           1          12          12          12           1           1          12           1           1
 AtmWgt=   1.0078250   1.0078250  12.0000000  12.0000000  12.0000000   1.0078250   1.0078250  12.0000000   1.0078250   1.0078250
 NucSpn=           1           1           0           0           0           1           1           0           1           1
 AtZEff=  -0.0000000  -0.0000000  -0.0000000  -0.0000000  -0.0000000  -0.0000000  -0.0000000  -0.0000000  -0.0000000  -0.0000000
 NQMom=    0.0000000   0.0000000   0.0000000   0.0000000   0.0000000   0.0000000   0.0000000   0.0000000   0.0000000   0.0000000
 NMagM=    2.7928460   2.7928460   0.0000000   0.0000000   0.0000000   2.7928460   2.7928460   0.0000000   2.7928460   2.7928460
 AtZNuc=   1.0000000   1.0000000   6.0000000   6.0000000   6.0000000   1.0000000   1.0000000   6.0000000   1.0000000   1.0000000

  Atom        41          42          43          44          45          46          47          48          49          50
 IAtWgt=           1           1           1           1          14          16           1          12          12          12
 AtmWgt=   1.0078250   1.0078250   1.0078250   1.0078250  14.0030740  15.9949146   1.0078250  12.0000000  12.0000000  12.0000000
 NucSpn=           1           1           1           1           2           0           1           0           0           0
 AtZEff=  -0.0000000  -0.0000000  -0.0000000  -0.0000000  -0.0000000  -0.0000000  -0.0000000  -0.0000000  -0.0000000  -0.0000000
 NQMom=    0.0000000   0.0000000   0.0000000   0.0000000   2.0440000   0.0000000   0.0000000   0.0000000   0.0000000   0.0000000
 NMagM=    2.7928460   2.7928460   2.7928460   2.7928460   0.4037610   0.0000000   2.7928460   0.0000000   0.0000000   0.0000000
 AtZNuc=   1.0000000   1.0000000   1.0000000   1.0000000   7.0000000   8.0000000   1.0000000   6.0000000   6.0000000   6.0000000

  Atom        51          52          53          54          55          56          57          58          59          60
 IAtWgt=          12          12          12           1           1          12          12           1           1          12
 AtmWgt=  12.0000000  12.0000000  12.0000000   1.0078250   1.0078250  12.0000000  12.0000000   1.0078250   1.0078250  12.0000000
 NucSpn=           0           0           0           1           1           0           0           1           1           0
 AtZEff=  -0.0000000  -0.0000000  -0.0000000  -0.0000000  -0.0000000  -0.0000000  -0.0000000  -0.0000000  -0.0000000  -0.0000000
 NQMom=    0.0000000   0.0000000   0.0000000   0.0000000   0.0000000   0.0000000   0.0000000   0.0000000   0.0000000   0.0000000
 NMagM=    0.0000000   0.0000000   0.0000000   2.7928460   2.7928460   0.0000000   0.0000000   2.7928460   2.7928460   0.0000000
 AtZNuc=   6.0000000   6.0000000   6.0000000   1.0000000   1.0000000   6.0000000   6.0000000   1.0000000   1.0000000   6.0000000

  Atom        61          62          63          64          65          66          67          68          69          70
 IAtWgt=          12           1          12          12          12          12          12          12          12          12
 AtmWgt=  12.0000000   1.0078250  12.0000000  12.0000000  12.0000000  12.0000000  12.0000000  12.0000000  12.0000000  12.0000000
 NucSpn=           0           1           0           0           0           0           0           0           0           0
 AtZEff=  -0.0000000  -0.0000000  -0.0000000  -0.0000000  -0.0000000  -0.0000000  -0.0000000  -0.0000000  -0.0000000  -0.0000000
 NQMom=    0.0000000   0.0000000   0.0000000   0.0000000   0.0000000   0.0000000   0.0000000   0.0000000   0.0000000   0.0000000
 NMagM=    0.0000000   2.7928460   0.0000000   0.0000000   0.0000000   0.0000000   0.0000000   0.0000000   0.0000000   0.0000000
 AtZNuc=   6.0000000   1.0000000   6.0000000   6.0000000   6.0000000   6.0000000   6.0000000   6.0000000   6.0000000   6.0000000

  Atom        71          72          73          74          75          76          77          78          79          80
 IAtWgt=          12           1           1          12           1           1           1          32          16          16
 AtmWgt=  12.0000000   1.0078250   1.0078250  12.0000000   1.0078250   1.0078250   1.0078250  31.9720718  15.9949146  15.9949146
 NucSpn=           0           1           1           0           1           1           1           0           0           0
 AtZEff=  -0.0000000  -0.0000000  -0.0000000  -0.0000000  -0.0000000  -0.0000000  -0.0000000  -0.0000000  -0.0000000  -0.0000000
 NQMom=    0.0000000   0.0000000   0.0000000   0.0000000   0.0000000   0.0000000   0.0000000   0.0000000   0.0000000   0.0000000
 NMagM=    0.0000000   2.7928460   2.7928460   0.0000000   2.7928460   2.7928460   2.7928460   0.0000000   0.0000000   0.0000000
 AtZNuc=   6.0000000   1.0000000   1.0000000   6.0000000   1.0000000   1.0000000   1.0000000  16.0000000   8.0000000   8.0000000

  Atom        81          82          83          84          85          86          87          88          89          90
 IAtWgt=          32          16          16          14          12          12          12          12          12          12
 AtmWgt=  31.9720718  15.9949146  15.9949146  14.0030740  12.0000000  12.0000000  12.0000000  12.0000000  12.0000000  12.0000000
 NucSpn=           0           0           0           2           0           0           0           0           0           0
 AtZEff=  -0.0000000  -0.0000000  -0.0000000  -0.0000000  -0.0000000  -0.0000000  -0.0000000  -0.0000000  -0.0000000  -0.0000000
 NQMom=    0.0000000   0.0000000   0.0000000   2.0440000   0.0000000   0.0000000   0.0000000   0.0000000   0.0000000   0.0000000
 NMagM=    0.0000000   0.0000000   0.0000000   0.4037610   0.0000000   0.0000000   0.0000000   0.0000000   0.0000000   0.0000000
 AtZNuc=  16.0000000   8.0000000   8.0000000   7.0000000   6.0000000   6.0000000   6.0000000   6.0000000   6.0000000   6.0000000

  Atom        91          92          93          94          95          96          97          98          99         100
 IAtWgt=          12          12          12           1          12           1           1           1          12          12
 AtmWgt=  12.0000000  12.0000000  12.0000000   1.0078250  12.0000000   1.0078250   1.0078250   1.0078250  12.0000000  12.0000000
 NucSpn=           0           0           0           1           0           1           1           1           0           0
 AtZEff=  -0.0000000  -0.0000000  -0.0000000  -0.0000000  -0.0000000  -0.0000000  -0.0000000  -0.0000000  -0.0000000  -0.0000000
 NQMom=    0.0000000   0.0000000   0.0000000   0.0000000   0.0000000   0.0000000   0.0000000   0.0000000   0.0000000   0.0000000
 NMagM=    0.0000000   0.0000000   0.0000000   2.7928460   0.0000000   2.7928460   2.7928460   2.7928460   0.0000000   0.0000000
 AtZNuc=   6.0000000   6.0000000   6.0000000   1.0000000   6.0000000   1.0000000   1.0000000   1.0000000   6.0000000   6.0000000

  Atom       101         102         103         104         105         106         107         108         109         110
 IAtWgt=          12          12          12           1          12           1           1           1          12          19
 AtmWgt=  12.0000000  12.0000000  12.0000000   1.0078250  12.0000000   1.0078250   1.0078250   1.0078250  12.0000000  18.9984032
 NucSpn=           0           0           0           1           0           1           1           1           0           1
 AtZEff=  -0.0000000  -0.0000000  -0.0000000  -0.0000000  -0.0000000  -0.0000000  -0.0000000  -0.0000000  -0.0000000  -0.0000000
 NQMom=    0.0000000   0.0000000   0.0000000   0.0000000   0.0000000   0.0000000   0.0000000   0.0000000   0.0000000   0.0000000
 NMagM=    0.0000000   0.0000000   0.0000000   2.7928460   0.0000000   2.7928460   2.7928460   2.7928460   0.0000000   2.6288670
 AtZNuc=   6.0000000   6.0000000   6.0000000   1.0000000   6.0000000   1.0000000   1.0000000   1.0000000   6.0000000   9.0000000

  Atom       111         112         113         114         115         116         117         118         119         120
 IAtWgt=          19          19          12          19          19          19         127          14          12          12
 AtmWgt=  18.9984032  18.9984032  12.0000000  18.9984032  18.9984032  18.9984032 126.9004000  14.0030740  12.0000000  12.0000000
 NucSpn=           1           1           0           1           1           1           5           2           0           0
 AtZEff=  -0.0000000  -0.0000000  -0.0000000  -0.0000000  -0.0000000  -0.0000000  -0.0000000  -0.0000000  -0.0000000  -0.0000000
 NQMom=    0.0000000   0.0000000   0.0000000   0.0000000   0.0000000   0.0000000 -71.0000000   2.0440000   0.0000000   0.0000000
 NMagM=    2.6288670   2.6288670   0.0000000   2.6288670   2.6288670   2.6288670   2.8132800   0.4037610   0.0000000   0.0000000
 AtZNuc=   9.0000000   9.0000000   6.0000000   9.0000000   9.0000000   9.0000000  53.0000000   7.0000000   6.0000000   6.0000000

  Atom       121         122         123         124         125         126         127         128         129         130
 IAtWgt=          12          12          16          16           1           1           1           1          12          12
 AtmWgt=  12.0000000  12.0000000  15.9949146  15.9949146   1.0078250   1.0078250   1.0078250   1.0078250  12.0000000  12.0000000
 NucSpn=           0           0           0           0           1           1           1           1           0           0
 AtZEff=  -0.0000000  -0.0000000  -0.0000000  -0.0000000  -0.0000000  -0.0000000  -0.0000000  -0.0000000  -0.0000000  -0.0000000
 NQMom=    0.0000000   0.0000000   0.0000000   0.0000000   0.0000000   0.0000000   0.0000000   0.0000000   0.0000000   0.0000000
 NMagM=    0.0000000   0.0000000   0.0000000   0.0000000   2.7928460   2.7928460   2.7928460   2.7928460   0.0000000   0.0000000
 AtZNuc=   6.0000000   6.0000000   8.0000000   8.0000000   1.0000000   1.0000000   1.0000000   1.0000000   6.0000000   6.0000000

  Atom       131         132         133         134         135         136         137         138         139         140
 IAtWgt=          12          12          12          14           1          12          12          12          12          12
 AtmWgt=  12.0000000  12.0000000  12.0000000  14.0030740   1.0078250  12.0000000  12.0000000  12.0000000  12.0000000  12.0000000
 NucSpn=           0           0           0           2           1           0           0           0           0           0
 AtZEff=  -0.0000000  -0.0000000  -0.0000000  -0.0000000  -0.0000000  -0.0000000  -0.0000000  -0.0000000  -0.0000000  -0.0000000
 NQMom=    0.0000000   0.0000000   0.0000000   2.0440000   0.0000000   0.0000000   0.0000000   0.0000000   0.0000000   0.0000000
 NMagM=    0.0000000   0.0000000   0.0000000   0.4037610   2.7928460   0.0000000   0.0000000   0.0000000   0.0000000   0.0000000
 AtZNuc=   6.0000000   6.0000000   6.0000000   7.0000000   1.0000000   6.0000000   6.0000000   6.0000000   6.0000000   6.0000000

  Atom       141         142         143         144         145         146         147         148         149         150
 IAtWgt=           1           1           1          12          12          12          12          12           1          12
 AtmWgt=   1.0078250   1.0078250   1.0078250  12.0000000  12.0000000  12.0000000  12.0000000  12.0000000   1.0078250  12.0000000
 NucSpn=           1           1           1           0           0           0           0           0           1           0
 AtZEff=  -0.0000000  -0.0000000  -0.0000000  -0.0000000  -0.0000000  -0.0000000  -0.0000000  -0.0000000  -0.0000000  -0.0000000
 NQMom=    0.0000000   0.0000000   0.0000000   0.0000000   0.0000000   0.0000000   0.0000000   0.0000000   0.0000000   0.0000000
 NMagM=    2.7928460   2.7928460   2.7928460   0.0000000   0.0000000   0.0000000   0.0000000   0.0000000   2.7928460   0.0000000
 AtZNuc=   1.0000000   1.0000000   1.0000000   6.0000000   6.0000000   6.0000000   6.0000000   6.0000000   1.0000000   6.0000000

  Atom       151         152         153         154         155         156         157         158         159         160
 IAtWgt=           1          12           1           1           1          19          12           1           1           1
 AtmWgt=   1.0078250  12.0000000   1.0078250   1.0078250   1.0078250  18.9984032  12.0000000   1.0078250   1.0078250   1.0078250
 NucSpn=           1           0           1           1           1           1           0           1           1           1
 AtZEff=  -0.0000000  -0.0000000  -0.0000000  -0.0000000  -0.0000000  -0.0000000  -0.0000000  -0.0000000  -0.0000000  -0.0000000
 NQMom=    0.0000000   0.0000000   0.0000000   0.0000000   0.0000000   0.0000000   0.0000000   0.0000000   0.0000000   0.0000000
 NMagM=    2.7928460   0.0000000   2.7928460   2.7928460   2.7928460   2.6288670   0.0000000   2.7928460   2.7928460   2.7928460
 AtZNuc=   1.0000000   6.0000000   1.0000000   1.0000000   1.0000000   9.0000000   6.0000000   1.0000000   1.0000000   1.0000000

  Atom       161         162         163         164         165         166         167         168         169         170
 IAtWgt=          12          12          12           1           1          12           1           1           1           1
 AtmWgt=  12.0000000  12.0000000  12.0000000   1.0078250   1.0078250  12.0000000   1.0078250   1.0078250   1.0078250   1.0078250
 NucSpn=           0           0           0           1           1           0           1           1           1           1
 AtZEff=  -0.0000000  -0.0000000  -0.0000000  -0.0000000  -0.0000000  -0.0000000  -0.0000000  -0.0000000  -0.0000000  -0.0000000
 NQMom=    0.0000000   0.0000000   0.0000000   0.0000000   0.0000000   0.0000000   0.0000000   0.0000000   0.0000000   0.0000000
 NMagM=    0.0000000   0.0000000   0.0000000   2.7928460   2.7928460   0.0000000   2.7928460   2.7928460   2.7928460   2.7928460
 AtZNuc=   6.0000000   6.0000000   6.0000000   1.0000000   1.0000000   6.0000000   1.0000000   1.0000000   1.0000000   1.0000000

  Atom       171         172         173         174         175         176
 IAtWgt=           1           1          14          16           1           1
 AtmWgt=   1.0078250   1.0078250  14.0030740  15.9949146   1.0078250   1.0078250
 NucSpn=           1           1           2           0           1           1
 AtZEff=  -0.0000000  -0.0000000  -0.0000000  -0.0000000  -0.0000000  -0.0000000
 NQMom=    0.0000000   0.0000000   2.0440000   0.0000000   0.0000000   0.0000000
 NMagM=    2.7928460   2.7928460   0.4037610   0.0000000   2.7928460   2.7928460
 AtZNuc=   1.0000000   1.0000000   7.0000000   8.0000000   1.0000000   1.0000000
 Leave Link  101 at Wed Feb 12 09:10:21 2025, MaxMem=  7247757312 cpu:               1.1 elap:               0.0
 (Enter /ihome/crc/install/gaussian/c01/avx2/tar/g16/l202.exe)
 Symmetry turned off by external request.
 Stoichiometry    C86H65F8IN6O8S2
 Framework group  C1[X(C86H65F8IN6O8S2)]
 Deg. of freedom   522
 Full point group                 C1      NOp   1
                          Input orientation:                          
 ---------------------------------------------------------------------
 Center     Atomic      Atomic             Coordinates (Angstroms)
 Number     Number       Type             X           Y           Z
 ---------------------------------------------------------------------
      1          6           0       -2.274366   -3.242113   -0.843179
      2          6           0       -1.183636   -4.213568   -0.712703
      3          6           0        0.058271   -3.634787   -0.181582
      4          6           0       -0.010752   -2.475769    0.514159
      5          6           0       -1.309271   -1.861705    0.705982
      6          7           0       -2.353388   -2.166328   -0.132717
      7          1           0        0.884468   -2.000879    0.906490
      8          6           0       -3.357841   -3.543831   -1.817875
      9          6           0       -3.077791   -3.740173   -3.187425
     10          6           0       -4.111969   -4.154561   -4.036731
     11          6           0       -5.699287   -4.110607   -2.211736
     12          6           0       -5.403764   -4.348732   -3.552061
     13          1           0       -3.902102   -4.296229   -5.098149
     14          1           0       -6.196271   -4.670274   -4.229616
     15          1           0       -6.702216   -4.238758   -1.802542
     16          6           0       -4.671234   -3.702622   -1.373995
     17          6           0       -1.718284   -3.466952   -3.728757
     18          6           0       -1.134811   -4.333592   -4.664265
     19          6           0       -0.995339   -2.338824   -3.306721
     20          6           0        0.146595   -4.084658   -5.154064
     21          1           0       -1.680092   -5.221958   -4.990422
     22          6           0        0.285803   -2.091773   -3.797719
     23          1           0       -1.421497   -1.631411   -2.592349
     24          6           0        0.861049   -2.965580   -4.721353
     25          1           0        0.593008   -4.774033   -5.872929
     26          1           0        0.822440   -1.206656   -3.449439
     27          1           0        1.865123   -2.775031   -5.104203
     28          9           0       -4.940726   -3.518022   -0.076551
     29          6           0        1.335626   -4.369380   -0.422999
     30          1           0        1.256149   -5.401467   -0.046666
     31          1           0        1.525425   -4.430151   -1.506404
     32          1           0        2.184478   -3.871688    0.060976
     33          6           0       -2.885463   -0.431262    1.901189
     34          6           0       -0.621579   -0.652442    2.739819
     35          6           0       -3.387668   -0.920130    3.254089
     36          1           0       -3.556721   -0.732327    1.094895
     37          1           0       -2.789241    0.665110    1.914575
     38          6           0       -1.219771   -1.123558    4.063546
     39          1           0        0.353592   -1.118061    2.576497
     40          1           0       -0.481553    0.437441    2.741503
     41          1           0       -3.527767   -2.018234    3.217141
     42          1           0       -4.354495   -0.449033    3.475641
     43          1           0       -1.274191   -2.229289    4.065347
     44          1           0       -0.570657   -0.801796    4.888240
     45          7           0       -1.552928   -0.990693    1.664494
     46          8           0       -2.493553   -0.571555    4.280698
     47          1           0       -1.059734   -4.877930   -1.571984
     48          6           0        2.536765    6.264894   -2.430051
     49          6           0        1.969333    5.333023   -1.594099
     50          6           0        2.774147    4.360270   -0.935600
     51          6           0        4.176242    4.361335   -1.186639
     52          6           0        4.737217    5.344664   -2.049381
     53          6           0        3.936073    6.279419   -2.655157
     54          1           0        1.902241    6.998370   -2.930024
     55          1           0        0.889808    5.331376   -1.443111
     56          6           0        2.226538    3.370265   -0.052764
     57          6           0        4.989872    3.372413   -0.588891
     58          1           0        5.814967    5.331534   -2.223124
     59          1           0        4.370269    7.028826   -3.318794
     60          6           0        4.453706    2.386206    0.220018
     61          6           0        3.047746    2.396827    0.486233
     62          1           0        6.064300    3.375952   -0.781885
     63          6           0        0.751077    3.421921    0.225936
     64          6           0       -0.116464    2.455536   -0.249913
     65          6           0        0.247367    4.513779    1.009117
     66          6           0       -1.531572    2.581622   -0.063581
     67          6           0       -1.155273    4.616833    1.230996
     68          6           0        1.100578    5.481522    1.609558
     69          6           0       -2.020264    3.651500    0.664981
     70          6           0       -1.667871    5.690700    2.011275
     71          6           0        0.579136    6.502908    2.367535
     72          1           0        2.180008    5.402052    1.478442
     73          1           0       -3.098726    3.756761    0.798441
     74          6           0       -0.819526    6.616241    2.565507
     75          1           0       -2.747105    5.756319    2.162875
     76          1           0        1.249778    7.231034    2.826443
     77          1           0       -1.216702    7.435808    3.166451
     78         16           0        2.235449    1.095922    1.410893
     79          8           0        1.438103    1.774028    2.395229
     80          8           0        3.203786    0.173847    1.917895
     81         16           0        0.617364    0.956329   -0.905656
     82          8           0        1.513930    1.350959   -1.952105
     83          8           0       -0.431594    0.056095   -1.285811
     84          7           0        1.354187    0.337067    0.342072
     85          6           0        5.373912    1.420383    0.745438
     86          6           0        6.256032    0.676723    1.120478
     87          6           0       -2.506775    1.712496   -0.657872
     88          6           0       -3.438060    1.110151   -1.151094
     89          6           0       -4.489792    0.400989   -1.815418
     90          6           0       -5.813272    0.390996   -1.329200
     91          6           0       -4.209692   -0.264614   -3.020192
     92          6           0       -6.819265   -0.269002   -2.030534
     93          6           0       -5.223063   -0.905968   -3.725370
     94          1           0       -3.188609   -0.248353   -3.403679
     95          6           0       -6.526742   -0.914727   -3.230979
     96          1           0       -7.837584   -0.266365   -1.641897
     97          1           0       -4.989926   -1.401617   -4.668805
     98          1           0       -7.321061   -1.422179   -3.780345
     99          6           0        7.254846   -0.234051    1.592230
    100          6           0        8.613931   -0.086601    1.246833
    101          6           0        6.879402   -1.303497    2.419668
    102          6           0        9.564598   -0.985951    1.719495
    103          6           0        7.835393   -2.199748    2.889163
    104          1           0        5.826884   -1.414026    2.683346
    105          6           0        9.176606   -2.043932    2.541780
    106          1           0       10.611670   -0.858760    1.444107
    107          1           0        7.528868   -3.026459    3.531813
    108          1           0        9.925847   -2.745864    2.909859
    109          6           0        9.030862    1.055698    0.356710
    110          9           0        8.724194    2.243856    0.888880
    111          9           0        8.431705    1.005414   -0.837725
    112          9           0       10.347051    1.057812    0.132509
    113          6           0       -6.149445    1.127054   -0.058519
    114          9           0       -5.845230    2.427195   -0.136910
    115          9           0       -5.485516    0.644378    1.000636
    116          9           0       -7.448801    1.048279    0.234860
    117         53           0       -1.978124   -5.635399    0.883151
    118          7           0       -2.833274   -7.051804    2.766552
    119          6           0       -3.357881   -8.253392    2.728199
    120          6           0       -3.960934   -8.694333    4.044767
    121          6           0       -3.758977   -7.474612    4.934175
    122          6           0       -3.021717   -6.485485    4.031752
    123          8           0       -2.660700   -5.379933    4.339917
    124          8           0       -3.349152   -8.982265    1.688798
    125          1           0       -5.014806   -8.957991    3.890756
    126          1           0       -3.437097   -9.598448    4.388574
    127          1           0       -3.150960   -7.668812    5.827635
    128          1           0       -4.700422   -7.013549    5.264183
    129          6           0       -6.394161  -10.171041    1.377876
    130          6           0       -7.512030  -10.979785    1.311415
    131          6           0       -7.345040  -12.376427    1.331981
    132          6           0       -6.057056  -12.891459    1.374885
    133          6           0       -4.946627  -12.018798    1.388707
    134          7           0       -5.146318  -10.687802    1.418158
    135          1           0       -5.902416  -13.968533    1.346959
    136          6           0       -6.475280   -8.686522    1.469379
    137          6           0       -7.185461   -8.003480    2.481946
    138          6           0       -7.111458   -6.601828    2.524575
    139          6           0       -5.694791   -6.546785    0.570386
    140          6           0       -6.368675   -5.881978    1.591375
    141          1           0       -7.630206   -6.071589    3.324444
    142          1           0       -6.307666   -4.795027    1.657094
    143          1           0       -5.105275   -6.028116   -0.184738
    144          6           0       -5.766640   -7.928744    0.532270
    145          6           0       -8.016540   -8.698806    3.510386
    146          6           0       -9.291199   -8.189997    3.801694
    147          6           0       -7.574504   -9.828799    4.216949
    148          6           0      -10.101129   -8.790912    4.764278
    149          1           0       -9.658913   -7.320578    3.253092
    150          6           0       -8.381424  -10.425792    5.183202
    151          1           0       -6.591494  -10.257307    4.015270
    152          6           0       -9.648669   -9.911048    5.459666
    153          1           0      -11.092084   -8.381484    4.967386
    154          1           0       -8.014510  -11.298912    5.725440
    155          1           0      -10.279977  -10.382135    6.214848
    156          9           0       -5.128015   -8.574105   -0.447731
    157          6           0       -8.546073  -13.273215    1.298906
    158          1           0       -8.261273  -14.331972    1.273713
    159          1           0       -9.167977  -13.094860    2.189280
    160          1           0       -9.167221  -13.049130    0.419643
    161          6           0       -2.645776  -11.829094    0.532463
    162          6           0       -3.353096  -13.864253    1.648870
    163          6           0       -1.270225  -12.013224    1.144183
    164          1           0       -2.862298  -10.766074    0.393555
    165          1           0       -2.665678  -12.318465   -0.459396
    166          6           0       -1.936692  -13.971837    2.200556
    167          1           0       -4.052082  -14.261823    2.395895
    168          1           0       -3.444748  -14.464609    0.723720
    169          1           0       -1.218799  -11.462978    2.103373
    170          1           0       -0.500672  -11.615003    0.470146
    171          1           0       -1.905901  -13.489029    3.196543
    172          1           0       -1.661854  -15.028668    2.316582
    173          7           0       -3.651070  -12.462929    1.390369
    174          8           0       -0.993677  -13.379031    1.345763
    175          1           0       -8.505752  -10.532488    1.276328
    176          1           0       -4.154591   -9.830470    1.611884
 ---------------------------------------------------------------------
 Rotational constants (GHZ):           0.0196626           0.0071899           0.0061782
 Leave Link  202 at Wed Feb 12 09:10:21 2025, MaxMem=  7247757312 cpu:               0.4 elap:               0.0
 (Enter /ihome/crc/install/gaussian/c01/avx2/tar/g16/l301.exe)
 Standard basis: def2TZVPP (5D, 7F)
 Ernie: Thresh=  0.10000D-02 Tol=  0.10000D-05 Strict=F.
  4392 basis functions,  6860 primitive gaussians,  5018 cartesian basis functions
   408 alpha electrons      408 beta electrons
       nuclear repulsion energy     25070.8335426505 Hartrees.
 IExCor=  402 DFT=T Ex+Corr=B3LYP ExCW=0 ScaHFX=  0.200000
 ScaDFX=  0.800000  0.720000  1.000000  0.810000 ScalE2=  1.000000  1.000000
 IRadAn=      5 IRanWt=     -1 IRanGd=            0 ICorTp=0 IEmpDi=141
 NAtoms=  176 NActive=  176 NUniq=  176 SFac= 1.00D+00 NAtFMM=   60 NAOKFM=T Big=T
 Integral buffers will be    131072 words long.
 Raffenetti 2 integral format.
 Two-electron integral symmetry is turned off.
 R6Disp:  Grimme-D3(BJ) Dispersion energy=       -0.5357326593 Hartrees.
 Nuclear repulsion after empirical dispersion term =    25070.2978099913 Hartrees.
 ------------------------------------------------------------------------------
 Polarizable Continuum Model (PCM)
 =================================
 Model                : PCM.
 Atomic radii         : SMD-Coulomb.
 Polarization charges : Total charges.
 Charge compensation  : None.
 Solution method      : On-the-fly selection.
 Cavity type          : VdW (van der Waals Surface) (Alpha=1.000).
 Cavity algorithm     : GePol (No added spheres)
                        Default sphere list used, NSphG=  176.
                        Lebedev-Laikov grids with approx.  5.0 points / Ang**2.
                        Smoothing algorithm: York/Karplus (Gamma=1.0000).
                        Polarization charges: spherical gaussians, with
                                              point-specific exponents (IZeta= 3).
                        Self-potential: point-specific (ISelfS= 7).
                        Self-field    : sphere-specific E.n sum rule (ISelfD= 2).
 Solvent              : PropylEthanoate, Eps=   5.520500 Eps(inf)=   1.916010
 ------------------------------------------------------------------------------
 GePol: Number of generator spheres                  =     176
 GePol: Total number of spheres                      =     176
 GePol: Number of exposed spheres                    =     175 ( 99.43%)
 GePol: Number of points                             =   12648
 GePol: Average weight of points                     =       0.11
 GePol: Minimum weight of points                     =   0.26D-11
 GePol: Maximum weight of points                     =    0.21501
 GePol: Number of points with low weight             =     795
 GePol: Fraction of low-weight points (<1% of avg)   =       6.29%
 GePol: Cavity surface area                          =   1417.907 Ang**2
 GePol: Cavity volume                                =   1569.952 Ang**3
 ------------------------------------------------------------------------------
 Atomic radii for non-electrostatic terms: SMD-CDS.
 ------------------------------------------------------------------------------
 PCM non-electrostatic energy =        -0.0349182709 Hartrees.
 Nuclear repulsion after PCM non-electrostatic terms =    25070.2628917203 Hartrees.
 Leave Link  301 at Wed Feb 12 09:10:21 2025, MaxMem=  7247757312 cpu:               2.6 elap:               0.1
 (Enter /ihome/crc/install/gaussian/c01/avx2/tar/g16/l302.exe)
 NPDir=0 NMtPBC=     1 NCelOv=     1 NCel=       1 NClECP=     1 NCelD=      1
         NCelK=      1 NCelE2=     1 NClLst=     1 CellRange=     0.0.
 One-electron integrals computed using PRISM.
   1 Symmetry operations used in ECPInt.
 ECPInt:  NShTT= 1316253 NPrTT= 3826671 LenC2=  620113 LenP2D= 1131125.
 LDataN:  DoStor=T MaxTD1= 7 Len=  274
 Number of processors reduced to  11 by ecpmxn.
 NBasis=  4392 RedAO= T EigKep=  1.98D-06  NBF=  4392
 NBsUse=  4392 1.00D-06 EigRej= -1.00D+00 NBFU=  4392
 Precomputing XC quadrature grid using
 IXCGrd= 4 IRadAn=           5 IRanWt=          -1 IRanGd=           0 AccXCQ= 0.00D+00.
 Defaulting to unpruned grid for atomic number  53.
 Generated NRdTot=       0 NPtTot=           0 NUsed=           0 NTot=          32
 NSgBfM=  3301  3229  3249  3262  3301 MxSgAt=   176 MxSgA2=   176.
 Leave Link  302 at Wed Feb 12 09:10:56 2025, MaxMem=  7247757312 cpu:            1071.1 elap:              34.4
 (Enter /ihome/crc/install/gaussian/c01/avx2/tar/g16/l303.exe)
 DipDrv:  MaxL=1.
 Leave Link  303 at Wed Feb 12 09:10:57 2025, MaxMem=  7247757312 cpu:              30.0 elap:               1.1
 (Enter /ihome/crc/install/gaussian/c01/avx2/tar/g16/l401.exe)
 ExpMin= 7.49D-02 ExpMax= 6.07D+04 ExpMxC= 2.07D+03 IAcc=3 IRadAn=         5 AccDes= 0.00D+00
 Harris functional with IExCor=  402 and IRadAn=       5 diagonalized for initial guess.
 HarFok:  IExCor=  402 AccDes= 0.00D+00 IRadAn=         5 IDoV= 1 UseB2=F ITyADJ=14
 ICtDFT=  3500011 ScaDFX=  1.000000  1.000000  1.000000  1.000000
 Defaulting to unpruned grid for atomic number  53.
 FoFCou: FMM=F IPFlag=           0 FMFlag=      100000 FMFlg1=        2001
         NFxFlg=           0 DoJE=T BraDBF=F KetDBF=T FulRan=T
         wScrn=  0.000000 ICntrl=       500 IOpCl=  0 I1Cent=   200000004 NGrid=           0
         NMat0=    1 NMatS0=      1 NMatT0=    0 NMatD0=    1 NMtDS0=    0 NMtDT0=    0
 Symmetry not used in FoFCou.
 Harris En= -6142.00775491025    
 JPrj=0 DoOrth=F DoCkMO=F.
 Leave Link  401 at Wed Feb 12 09:11:24 2025, MaxMem=  7247757312 cpu:             847.3 elap:              26.6
 (Enter /ihome/crc/install/gaussian/c01/avx2/tar/g16/l502.exe)
 Two-electron integral symmetry not used.
 Closed shell SCF:
 Using DIIS extrapolation, IDIIS=  1040.
 NGot=  7247757312 LenX=  7197201328 LenY=  7172015986
 Requested convergence on RMS density matrix=1.00D-08 within 128 cycles.
 Requested convergence on MAX density matrix=1.00D-06.
 Requested convergence on             energy=1.00D-06.
 No special actions if energy rises.
 Fock matrices will be formed incrementally for  20 cycles.

 Cycle   1  Pass 1  IDiag  1:
 FoFJK:  IHMeth= 1 ICntrl=       0 DoSepK=F KAlg= 0 I1Cent=           0 FoldK=F
 IRaf= 420000000 NMat=       1 IRICut=       1 DoRegI=T DoRafI=F ISym2E= 0 IDoP0=0 IntGTp=1.
 FoFCou: FMM=T IPFlag=           0 FMFlag=      100000 FMFlg1=        2001
         NFxFlg=           0 DoJE=F BraDBF=F KetDBF=F FulRan=T
         wScrn=  0.000000 ICntrl=         0 IOpCl=  0 I1Cent=           0 NGrid=           0
         NMat0=    1 NMatS0=      1 NMatT0=    0 NMatD0=    1 NMtDS0=    0 NMtDT0=    0
 Symmetry not used in FoFCou.
 FMM levels:  10  Number of levels for PrismC:   9
 Defaulting to unpruned grid for atomic number  53.
 Defaulting to unpruned grid for atomic number  53.
 Defaulting to unpruned grid for atomic number  53.
 Defaulting to unpruned grid for atomic number  53.
 Defaulting to unpruned grid for atomic number  53.
 Defaulting to unpruned grid for atomic number  53.
 Defaulting to unpruned grid for atomic number  53.
 Defaulting to unpruned grid for atomic number  53.
 Defaulting to unpruned grid for atomic number  53.
 Defaulting to unpruned grid for atomic number  53.
 Defaulting to unpruned grid for atomic number  53.
 Defaulting to unpruned grid for atomic number  53.
 Defaulting to unpruned grid for atomic number  53.
 Defaulting to unpruned grid for atomic number  53.
 Defaulting to unpruned grid for atomic number  53.
 Defaulting to unpruned grid for atomic number  53.
 Defaulting to unpruned grid for atomic number  53.
 Defaulting to unpruned grid for atomic number  53.
 Defaulting to unpruned grid for atomic number  53.
 Defaulting to unpruned grid for atomic number  53.
 Defaulting to unpruned grid for atomic number  53.
 Defaulting to unpruned grid for atomic number  53.
 Defaulting to unpruned grid for atomic number  53.
 Defaulting to unpruned grid for atomic number  53.
 Defaulting to unpruned grid for atomic number  53.
 Defaulting to unpruned grid for atomic number  53.
 Defaulting to unpruned grid for atomic number  53.
 Defaulting to unpruned grid for atomic number  53.
 Defaulting to unpruned grid for atomic number  53.
 Defaulting to unpruned grid for atomic number  53.
 Defaulting to unpruned grid for atomic number  53.
 Defaulting to unpruned grid for atomic number  53.
 Inv3:  Mode=1 IEnd=   479915712.
 Iteration    1 A*A^-1 deviation from unit magnitude is 4.11D-15 for   9915.
 Iteration    1 A*A^-1 deviation from orthogonality  is 3.13D-15 for   8016     68.
 Iteration    1 A^-1*A deviation from unit magnitude is 4.00D-15 for   9915.
 Iteration    1 A^-1*A deviation from orthogonality  is 1.18D-12 for   5510   5476.
 E= -6139.33290136135    
 DIIS: error= 1.64D-02 at cycle   1 NSaved=   1.
 NSaved= 1 IEnMin= 1 EnMin= -6139.33290136135     IErMin= 1 ErrMin= 1.64D-02
 ErrMax= 1.64D-02  0.00D+00 EMaxC= 1.00D-01 BMatC= 3.28D+00 BMatP= 3.28D+00
 IDIUse=3 WtCom= 8.36D-01 WtEn= 1.64D-01
 Coeff-Com:  0.100D+01
 Coeff-En:   0.100D+01
 Coeff:      0.100D+01
 Gap=     0.327 Goal=   None    Shift=    0.000
 GapD=    0.327 DampG=1.000 DampE=0.500 DampFc=0.5000 IDamp=-1.
 Damping current iteration by 5.00D-01
 RMSDP=2.32D-03 MaxDP=1.91D+00              OVMax= 2.34D-01

 Cycle   2  Pass 1  IDiag  1:
 RMSU=  1.15D-03    CP:  1.06D+00
 E= -6140.20793155864     Delta-E=       -0.875030197283 Rises=F Damp=T
 DIIS: error= 4.95D-03 at cycle   2 NSaved=   2.
 NSaved= 2 IEnMin= 2 EnMin= -6140.20793155864     IErMin= 2 ErrMin= 4.95D-03
 ErrMax= 4.95D-03  0.00D+00 EMaxC= 1.00D-01 BMatC= 4.15D-01 BMatP= 3.28D+00
 IDIUse=3 WtCom= 9.51D-01 WtEn= 4.95D-02
 Coeff-Com:  0.159D+00 0.841D+00
 Coeff-En:   0.279D+00 0.721D+00
 Coeff:      0.165D+00 0.835D+00
 Gap=     0.193 Goal=   None    Shift=    0.000
 RMSDP=9.23D-04 MaxDP=5.30D-01 DE=-8.75D-01 OVMax= 2.28D-01

 Cycle   3  Pass 1  IDiag  1:
 RMSU=  7.98D-04    CP:  1.04D+00  5.98D-01
 E= -6141.57755495501     Delta-E=       -1.369623396375 Rises=F Damp=F
 DIIS: error= 5.98D-03 at cycle   3 NSaved=   3.
 NSaved= 3 IEnMin= 3 EnMin= -6141.57755495501     IErMin= 2 ErrMin= 4.95D-03
 ErrMax= 5.98D-03  0.00D+00 EMaxC= 1.00D-01 BMatC= 4.87D-01 BMatP= 4.15D-01
 IDIUse=3 WtCom= 1.14D-01 WtEn= 8.86D-01
 Coeff-Com:  0.886D-02 0.521D+00 0.470D+00
 Coeff-En:   0.000D+00 0.000D+00 0.100D+01
 Coeff:      0.101D-02 0.596D-01 0.939D+00
 Gap=     0.245 Goal=   None    Shift=    0.000
 RMSDP=1.39D-03 MaxDP=1.26D+00 DE=-1.37D+00 OVMax= 2.06D-01

 Cycle   4  Pass 1  IDiag  1:
 RMSU=  7.41D-04    CP:  1.02D+00  9.28D-01 -3.99D-01
 E= -6139.99774579054     Delta-E=        1.579809164468 Rises=F Damp=F
 DIIS: error= 1.57D-02 at cycle   4 NSaved=   4.
 NSaved= 4 IEnMin= 3 EnMin= -6141.57755495501     IErMin= 2 ErrMin= 4.95D-03
 ErrMax= 1.57D-02  0.00D+00 EMaxC= 1.00D-01 BMatC= 2.49D+00 BMatP= 4.15D-01
 IDIUse=2 WtCom= 0.00D+00 WtEn= 1.00D+00
 Coeff-En:   0.000D+00 0.000D+00 0.769D+00 0.231D+00
 Coeff:      0.000D+00 0.000D+00 0.769D+00 0.231D+00
 Gap=     0.168 Goal=   None    Shift=    0.000
 RMSDP=8.12D-04 MaxDP=1.13D+00 DE= 1.58D+00 OVMax= 1.49D-01

 Cycle   5  Pass 1  IDiag  1:
 RMSU=  2.40D-04    CP:  1.01D+00  6.23D-01  2.07D-01  3.30D-01
 E= -6141.87652488221     Delta-E=       -1.878779091665 Rises=F Damp=F
 DIIS: error= 3.32D-03 at cycle   5 NSaved=   5.
 NSaved= 5 IEnMin= 5 EnMin= -6141.87652488221     IErMin= 5 ErrMin= 3.32D-03
 ErrMax= 3.32D-03  0.00D+00 EMaxC= 1.00D-01 BMatC= 1.45D-01 BMatP= 4.15D-01
 IDIUse=3 WtCom= 9.67D-01 WtEn= 3.32D-02
 Coeff-Com:  0.568D-02 0.304D-02 0.325D+00-0.220D-01 0.688D+00
 Coeff-En:   0.000D+00 0.000D+00 0.273D+00 0.000D+00 0.727D+00
 Coeff:      0.549D-02 0.294D-02 0.323D+00-0.212D-01 0.690D+00
 Gap=     0.122 Goal=   None    Shift=    0.000
 RMSDP=1.96D-04 MaxDP=1.16D-01 DE=-1.88D+00 OVMax= 4.43D-02

 Cycle   6  Pass 1  IDiag  1:
 RMSU=  6.58D-05    CP:  1.02D+00  5.88D-01  4.02D-01  2.16D-01  8.80D-01
 E= -6141.99187295461     Delta-E=       -0.115348072402 Rises=F Damp=F
 DIIS: error= 7.58D-04 at cycle   6 NSaved=   6.
 NSaved= 6 IEnMin= 6 EnMin= -6141.99187295461     IErMin= 6 ErrMin= 7.58D-04
 ErrMax= 7.58D-04  0.00D+00 EMaxC= 1.00D-01 BMatC= 5.95D-03 BMatP= 1.45D-01
 IDIUse=3 WtCom= 9.92D-01 WtEn= 7.58D-03
 Coeff-Com: -0.169D-03-0.383D-03 0.156D+00-0.492D-01 0.482D+00 0.412D+00
 Coeff-En:   0.000D+00 0.000D+00 0.000D+00 0.000D+00 0.000D+00 0.100D+01
 Coeff:     -0.168D-03-0.381D-03 0.155D+00-0.488D-01 0.478D+00 0.416D+00
 Gap=     0.121 Goal=   None    Shift=    0.000
 RMSDP=4.35D-05 MaxDP=2.81D-02 DE=-1.15D-01 OVMax= 1.31D-02

 Cycle   7  Pass 1  IDiag  1:
 RMSU=  2.22D-05    CP:  1.02D+00  5.92D-01  4.27D-01  1.94D-01  9.00D-01
                    CP:  6.05D-01
 E= -6141.99741137222     Delta-E=       -0.005538417608 Rises=F Damp=F
 DIIS: error= 1.45D-04 at cycle   7 NSaved=   7.
 NSaved= 7 IEnMin= 7 EnMin= -6141.99741137222     IErMin= 7 ErrMin= 1.45D-04
 ErrMax= 1.45D-04  0.00D+00 EMaxC= 1.00D-01 BMatC= 2.52D-04 BMatP= 5.95D-03
 IDIUse=3 WtCom= 9.99D-01 WtEn= 1.45D-03
 Coeff-Com: -0.482D-03 0.174D-02 0.707D-01-0.289D-01 0.234D+00 0.238D+00
 Coeff-Com:  0.485D+00
 Coeff-En:   0.000D+00 0.000D+00 0.000D+00 0.000D+00 0.000D+00 0.000D+00
 Coeff-En:   0.100D+01
 Coeff:     -0.482D-03 0.174D-02 0.706D-01-0.289D-01 0.233D+00 0.238D+00
 Coeff:      0.486D+00
 Gap=     0.121 Goal=   None    Shift=    0.000
 RMSDP=7.28D-06 MaxDP=4.16D-03 DE=-5.54D-03 OVMax= 2.15D-03

 Cycle   8  Pass 1  IDiag  1:
 RMSU=  6.08D-06    CP:  1.02D+00  5.92D-01  4.27D-01  1.95D-01  8.98D-01
                    CP:  5.99D-01  8.29D-01
 E= -6141.99760018552     Delta-E=       -0.000188813305 Rises=F Damp=F
 DIIS: error= 5.27D-05 at cycle   8 NSaved=   8.
 NSaved= 8 IEnMin= 8 EnMin= -6141.99760018552     IErMin= 8 ErrMin= 5.27D-05
 ErrMax= 5.27D-05  0.00D+00 EMaxC= 1.00D-01 BMatC= 2.72D-05 BMatP= 2.52D-04
 IDIUse=1 WtCom= 1.00D+00 WtEn= 0.00D+00
 Coeff-Com: -0.750D-04 0.410D-03 0.189D-01-0.905D-02 0.622D-01 0.713D-01
 Coeff-Com:  0.268D+00 0.588D+00
 Coeff:     -0.750D-04 0.410D-03 0.189D-01-0.905D-02 0.622D-01 0.713D-01
 Coeff:      0.268D+00 0.588D+00
 Gap=     0.121 Goal=   None    Shift=    0.000
 RMSDP=3.19D-06 MaxDP=1.72D-03 DE=-1.89D-04 OVMax= 1.04D-03

 Cycle   9  Pass 1  IDiag  1:
 RMSU=  2.00D-06    CP:  1.02D+00  5.92D-01  4.30D-01  1.93D-01  8.97D-01
                    CP:  5.95D-01  8.64D-01  8.74D-01
 E= -6141.99762138156     Delta-E=       -0.000021196036 Rises=F Damp=F
 DIIS: error= 1.71D-05 at cycle   9 NSaved=   9.
 NSaved= 9 IEnMin= 9 EnMin= -6141.99762138156     IErMin= 9 ErrMin= 1.71D-05
 ErrMax= 1.71D-05  0.00D+00 EMaxC= 1.00D-01 BMatC= 5.00D-06 BMatP= 2.72D-05
 IDIUse=1 WtCom= 1.00D+00 WtEn= 0.00D+00
 Coeff-Com:  0.588D-04-0.200D-03 0.269D-02-0.152D-02 0.702D-02 0.119D-01
 Coeff-Com:  0.988D-01 0.370D+00 0.512D+00
 Coeff:      0.588D-04-0.200D-03 0.269D-02-0.152D-02 0.702D-02 0.119D-01
 Coeff:      0.988D-01 0.370D+00 0.512D+00
 Gap=     0.121 Goal=   None    Shift=    0.000
 RMSDP=9.42D-07 MaxDP=5.21D-04 DE=-2.12D-05 OVMax= 3.42D-04

 Cycle  10  Pass 1  IDiag  1:
 RMSU=  7.45D-07    CP:  1.02D+00  5.92D-01  4.30D-01  1.93D-01  8.97D-01
                    CP:  5.98D-01  8.64D-01  8.65D-01  8.25D-01
 E= -6141.99762550845     Delta-E=       -0.000004126890 Rises=F Damp=F
 DIIS: error= 4.97D-06 at cycle  10 NSaved=  10.
 NSaved=10 IEnMin=10 EnMin= -6141.99762550845     IErMin=10 ErrMin= 4.97D-06
 ErrMax= 4.97D-06  0.00D+00 EMaxC= 1.00D-01 BMatC= 5.29D-07 BMatP= 5.00D-06
 IDIUse=1 WtCom= 1.00D+00 WtEn= 0.00D+00
 Coeff-Com:  0.396D-04-0.194D-03-0.106D-03-0.620D-04-0.143D-02 0.633D-03
 Coeff-Com:  0.329D-01 0.163D+00 0.313D+00 0.492D+00
 Coeff:      0.396D-04-0.194D-03-0.106D-03-0.620D-04-0.143D-02 0.633D-03
 Coeff:      0.329D-01 0.163D+00 0.313D+00 0.492D+00
 Gap=     0.121 Goal=   None    Shift=    0.000
 RMSDP=3.66D-07 MaxDP=1.77D-04 DE=-4.13D-06 OVMax= 1.27D-04

 Cycle  11  Pass 1  IDiag  1:
 RMSU=  2.31D-07    CP:  1.02D+00  5.92D-01  4.30D-01  1.93D-01  8.97D-01
                    CP:  5.99D-01  8.67D-01  8.80D-01  8.21D-01  7.49D-01
 E= -6141.99762593386     Delta-E=       -0.000000425407 Rises=F Damp=F
 DIIS: error= 1.74D-06 at cycle  11 NSaved=  11.
 NSaved=11 IEnMin=11 EnMin= -6141.99762593386     IErMin=11 ErrMin= 1.74D-06
 ErrMax= 1.74D-06  0.00D+00 EMaxC= 1.00D-01 BMatC= 6.51D-08 BMatP= 5.29D-07
 IDIUse=1 WtCom= 1.00D+00 WtEn= 0.00D+00
 Coeff-Com:  0.124D-04-0.768D-04-0.368D-03 0.982D-04-0.155D-02-0.666D-03
 Coeff-Com:  0.996D-02 0.609D-01 0.138D+00 0.307D+00 0.487D+00
 Coeff:      0.124D-04-0.768D-04-0.368D-03 0.982D-04-0.155D-02-0.666D-03
 Coeff:      0.996D-02 0.609D-01 0.138D+00 0.307D+00 0.487D+00
 Gap=     0.121 Goal=   None    Shift=    0.000
 RMSDP=1.60D-07 MaxDP=6.78D-05 DE=-4.25D-07 OVMax= 5.63D-05

 Cycle  12  Pass 1  IDiag  1:
 RMSU=  1.11D-07    CP:  1.02D+00  5.92D-01  4.30D-01  1.93D-01  8.97D-01
                    CP:  5.99D-01  8.70D-01  8.84D-01  8.22D-01  7.54D-01
                    CP:  8.50D-01
 E= -6141.99762599050     Delta-E=       -0.000000056643 Rises=F Damp=F
 DIIS: error= 1.02D-06 at cycle  12 NSaved=  12.
 NSaved=12 IEnMin=12 EnMin= -6141.99762599050     IErMin=12 ErrMin= 1.02D-06
 ErrMax= 1.02D-06  0.00D+00 EMaxC= 1.00D-01 BMatC= 6.79D-09 BMatP= 6.51D-08
 IDIUse=1 WtCom= 1.00D+00 WtEn= 0.00D+00
 Coeff-Com: -0.610D-06-0.930D-05-0.260D-03 0.818D-04-0.849D-03-0.526D-03
 Coeff-Com:  0.114D-02 0.131D-01 0.364D-01 0.105D+00 0.269D+00 0.577D+00
 Coeff:     -0.610D-06-0.930D-05-0.260D-03 0.818D-04-0.849D-03-0.526D-03
 Coeff:      0.114D-02 0.131D-01 0.364D-01 0.105D+00 0.269D+00 0.577D+00
 Gap=     0.121 Goal=   None    Shift=    0.000
 RMSDP=7.89D-08 MaxDP=4.43D-05 DE=-5.66D-08 OVMax= 1.99D-05

 Cycle  13  Pass 1  IDiag  1:
 RMSU=  3.73D-08    CP:  1.02D+00  5.92D-01  4.30D-01  1.93D-01  8.97D-01
                    CP:  5.99D-01  8.69D-01  8.83D-01  8.20D-01  7.63D-01
                    CP:  8.96D-01  7.49D-01
 E= -6141.99762599673     Delta-E=       -0.000000006228 Rises=F Damp=F
 DIIS: error= 3.53D-07 at cycle  13 NSaved=  13.
 NSaved=13 IEnMin=13 EnMin= -6141.99762599673     IErMin=13 ErrMin= 3.53D-07
 ErrMax= 3.53D-07  0.00D+00 EMaxC= 1.00D-01 BMatC= 1.37D-09 BMatP= 6.79D-09
 IDIUse=1 WtCom= 1.00D+00 WtEn= 0.00D+00
 Coeff-Com: -0.334D-05 0.722D-05-0.967D-04 0.313D-04-0.242D-03-0.157D-03
 Coeff-Com: -0.799D-03-0.160D-02-0.226D-03 0.139D-01 0.825D-01 0.355D+00
 Coeff-Com:  0.551D+00
 Coeff:     -0.334D-05 0.722D-05-0.967D-04 0.313D-04-0.242D-03-0.157D-03
 Coeff:     -0.799D-03-0.160D-02-0.226D-03 0.139D-01 0.825D-01 0.355D+00
 Coeff:      0.551D+00
 Gap=     0.121 Goal=   None    Shift=    0.000
 RMSDP=2.14D-08 MaxDP=8.25D-06 DE=-6.23D-09 OVMax= 1.09D-05

 Cycle  14  Pass 1  IDiag  1:
 RMSU=  1.47D-08    CP:  1.02D+00  5.92D-01  4.30D-01  1.93D-01  8.97D-01
                    CP:  5.99D-01  8.69D-01  8.83D-01  8.22D-01  7.67D-01
                    CP:  9.01D-01  8.10D-01  8.62D-01
 E= -6141.99762599823     Delta-E=       -0.000000001499 Rises=F Damp=F
 DIIS: error= 1.42D-07 at cycle  14 NSaved=  14.
 NSaved=14 IEnMin=14 EnMin= -6141.99762599823     IErMin=14 ErrMin= 1.42D-07
 ErrMax= 1.42D-07  0.00D+00 EMaxC= 1.00D-01 BMatC= 2.22D-10 BMatP= 1.37D-09
 IDIUse=1 WtCom= 1.00D+00 WtEn= 0.00D+00
 Coeff-Com: -0.227D-05 0.670D-05-0.247D-04 0.692D-05-0.279D-04-0.129D-04
 Coeff-Com: -0.647D-03-0.294D-02-0.584D-02-0.741D-02 0.108D-01 0.136D+00
 Coeff-Com:  0.355D+00 0.515D+00
 Coeff:     -0.227D-05 0.670D-05-0.247D-04 0.692D-05-0.279D-04-0.129D-04
 Coeff:     -0.647D-03-0.294D-02-0.584D-02-0.741D-02 0.108D-01 0.136D+00
 Coeff:      0.355D+00 0.515D+00
 Gap=     0.121 Goal=   None    Shift=    0.000
 RMSDP=1.04D-08 MaxDP=6.64D-06 DE=-1.50D-09 OVMax= 3.21D-06

 Cycle  15  Pass 1  IDiag  1:
 RMSU=  5.50D-09    CP:  1.02D+00  5.92D-01  4.30D-01  1.93D-01  8.97D-01
                    CP:  5.99D-01  8.69D-01  8.83D-01  8.22D-01  7.66D-01
                    CP:  9.09D-01  8.29D-01  8.87D-01  7.92D-01
 E= -6141.99762599800     Delta-E=        0.000000000226 Rises=F Damp=F
 DIIS: error= 5.06D-08 at cycle  15 NSaved=  15.
 NSaved=15 IEnMin=14 EnMin= -6141.99762599823     IErMin=15 ErrMin= 5.06D-08
 ErrMax= 5.06D-08  0.00D+00 EMaxC= 1.00D-01 BMatC= 2.69D-11 BMatP= 2.22D-10
 IDIUse=1 WtCom= 1.00D+00 WtEn= 0.00D+00
 Coeff-Com: -0.768D-06 0.258D-05-0.180D-05 0.189D-06 0.129D-04 0.111D-04
 Coeff-Com: -0.246D-03-0.138D-02-0.329D-02-0.608D-02-0.572D-02 0.247D-01
 Coeff-Com:  0.132D+00 0.311D+00 0.549D+00
 Coeff:     -0.768D-06 0.258D-05-0.180D-05 0.189D-06 0.129D-04 0.111D-04
 Coeff:     -0.246D-03-0.138D-02-0.329D-02-0.608D-02-0.572D-02 0.247D-01
 Coeff:      0.132D+00 0.311D+00 0.549D+00
 Gap=     0.121 Goal=   None    Shift=    0.000
 RMSDP=2.70D-09 MaxDP=7.09D-07 DE= 2.26D-10 OVMax= 1.35D-06

 Error on total polarization charges =  0.10195
 SCF Done:  E(RB3LYP) =  -6141.99762600     A.U. after   15 cycles
            NFock= 15  Conv=0.27D-08     -V/T= 2.0356
 KE= 5.931064183959D+03 PE=-6.446379593776D+04 EE= 2.732047123608D+04
 SMD-CDS (non-electrostatic) energy       (kcal/mol) =     -21.91
 (included in total energy above)
 Leave Link  502 at Wed Feb 12 10:29:36 2025, MaxMem=  7247757312 cpu:          149209.4 elap:            4690.9
 (Enter /ihome/crc/install/gaussian/c01/avx2/tar/g16/l601.exe)
 Copying SCF densities to generalized density rwf, IOpCl= 0 IROHF=0.
 Hyperfine terms turned off by default for NAtoms > 100.

 **********************************************************************

            Population analysis using the SCF Density.

 **********************************************************************

 Alpha  occ. eigenvalues --  -89.02493 -89.02481 -24.71823 -24.71568 -24.71419
 Alpha  occ. eigenvalues --  -24.71391 -24.71133 -24.71121 -24.70364 -24.70258
 Alpha  occ. eigenvalues --  -19.14231 -19.13602 -19.12880 -19.10439 -19.08828
 Alpha  occ. eigenvalues --  -19.08778 -19.08671 -19.08642 -14.37642 -14.35278
 Alpha  occ. eigenvalues --  -14.35155 -14.31944 -14.31888 -14.27768 -10.42467
 Alpha  occ. eigenvalues --  -10.42224 -10.28985 -10.27360 -10.27329 -10.27283
 Alpha  occ. eigenvalues --  -10.26920 -10.26905 -10.25076 -10.24508 -10.22244
 Alpha  occ. eigenvalues --  -10.21940 -10.21603 -10.21528 -10.21474 -10.21389
 Alpha  occ. eigenvalues --  -10.21342 -10.21152 -10.21121 -10.21039 -10.20887
 Alpha  occ. eigenvalues --  -10.20776 -10.20584 -10.20504 -10.20485 -10.20407
 Alpha  occ. eigenvalues --  -10.20345 -10.20285 -10.20263 -10.20231 -10.20118
 Alpha  occ. eigenvalues --  -10.20087 -10.20067 -10.20023 -10.19864 -10.19838
 Alpha  occ. eigenvalues --  -10.19182 -10.19175 -10.19111 -10.19054 -10.19017
 Alpha  occ. eigenvalues --  -10.18966 -10.18958 -10.18934 -10.18913 -10.18905
 Alpha  occ. eigenvalues --  -10.18867 -10.18624 -10.18619 -10.18568 -10.18567
 Alpha  occ. eigenvalues --  -10.18541 -10.18492 -10.18467 -10.18465 -10.18446
 Alpha  occ. eigenvalues --  -10.18410 -10.18406 -10.18389 -10.18366 -10.18340
 Alpha  occ. eigenvalues --  -10.18330 -10.18276 -10.18224 -10.18216 -10.18145
 Alpha  occ. eigenvalues --  -10.17792 -10.17768 -10.17763 -10.17711 -10.17697
 Alpha  occ. eigenvalues --  -10.17682 -10.17680 -10.17647 -10.17631 -10.17609
 Alpha  occ. eigenvalues --  -10.17550 -10.17544 -10.17544 -10.17336 -10.17336
 Alpha  occ. eigenvalues --  -10.17149 -10.17062 -10.17061 -10.16982 -10.16597
 Alpha  occ. eigenvalues --   -8.07008  -8.07001  -6.83397  -6.03332  -6.03318
 Alpha  occ. eigenvalues --   -6.03241  -6.03238  -6.03216  -6.03212  -4.86141
 Alpha  occ. eigenvalues --   -4.84516  -4.84480  -1.90830  -1.90390  -1.90358
 Alpha  occ. eigenvalues --   -1.88995  -1.88995  -1.32499  -1.32237  -1.24410
 Alpha  occ. eigenvalues --   -1.24191  -1.23470  -1.23206  -1.23091  -1.22832
 Alpha  occ. eigenvalues --   -1.10731  -1.09222  -1.07758  -1.05521  -1.04927
 Alpha  occ. eigenvalues --   -1.04798  -1.00390  -1.00347  -0.98322  -0.98301
 Alpha  occ. eigenvalues --   -0.94492  -0.94455  -0.93545  -0.89901  -0.88576
 Alpha  occ. eigenvalues --   -0.88373  -0.88212  -0.88013  -0.87953  -0.87836
 Alpha  occ. eigenvalues --   -0.86071  -0.85276  -0.83898  -0.83802  -0.83606
 Alpha  occ. eigenvalues --   -0.83015  -0.81298  -0.80767  -0.80202  -0.79298
 Alpha  occ. eigenvalues --   -0.79141  -0.78799  -0.78513  -0.78449  -0.78347
 Alpha  occ. eigenvalues --   -0.78155  -0.78138  -0.77799  -0.76719  -0.76153
 Alpha  occ. eigenvalues --   -0.76104  -0.75701  -0.75510  -0.75314  -0.74367
 Alpha  occ. eigenvalues --   -0.74348  -0.74076  -0.73537  -0.72996  -0.72712
 Alpha  occ. eigenvalues --   -0.72537  -0.72210  -0.71612  -0.70969  -0.70515
 Alpha  occ. eigenvalues --   -0.70398  -0.70200  -0.68644  -0.67675  -0.67603
 Alpha  occ. eigenvalues --   -0.67314  -0.66437  -0.65770  -0.65463  -0.64808
 Alpha  occ. eigenvalues --   -0.64754  -0.64574  -0.63794  -0.63389  -0.63361
 Alpha  occ. eigenvalues --   -0.63258  -0.63223  -0.62820  -0.62717  -0.62691
 Alpha  occ. eigenvalues --   -0.62427  -0.61704  -0.61296  -0.61211  -0.60465
 Alpha  occ. eigenvalues --   -0.60345  -0.60170  -0.59856  -0.59655  -0.59646
 Alpha  occ. eigenvalues --   -0.59442  -0.59338  -0.58430  -0.57967  -0.57902
 Alpha  occ. eigenvalues --   -0.57618  -0.57340  -0.57109  -0.56301  -0.56269
 Alpha  occ. eigenvalues --   -0.55303  -0.54776  -0.54689  -0.54288  -0.53623
 Alpha  occ. eigenvalues --   -0.53565  -0.53312  -0.52810  -0.52704  -0.52265
 Alpha  occ. eigenvalues --   -0.52213  -0.51760  -0.51701  -0.51172  -0.51039
 Alpha  occ. eigenvalues --   -0.50913  -0.50742  -0.50471  -0.50260  -0.49980
 Alpha  occ. eigenvalues --   -0.49721  -0.49546  -0.49354  -0.48953  -0.48676
 Alpha  occ. eigenvalues --   -0.48387  -0.48310  -0.48234  -0.48039  -0.48032
 Alpha  occ. eigenvalues --   -0.47945  -0.47796  -0.47732  -0.47722  -0.47391
 Alpha  occ. eigenvalues --   -0.47272  -0.47211  -0.47092  -0.46967  -0.46900
 Alpha  occ. eigenvalues --   -0.46674  -0.46558  -0.46496  -0.46206  -0.46031
 Alpha  occ. eigenvalues --   -0.45956  -0.45919  -0.45533  -0.45342  -0.45302
 Alpha  occ. eigenvalues --   -0.45226  -0.45073  -0.45022  -0.44966  -0.44752
 Alpha  occ. eigenvalues --   -0.44539  -0.44482  -0.44442  -0.44227  -0.44116
 Alpha  occ. eigenvalues --   -0.43941  -0.43783  -0.43688  -0.43540  -0.43484
 Alpha  occ. eigenvalues --   -0.43185  -0.42898  -0.42785  -0.42741  -0.42707
 Alpha  occ. eigenvalues --   -0.42666  -0.42554  -0.42511  -0.42412  -0.42075
 Alpha  occ. eigenvalues --   -0.42026  -0.41970  -0.41791  -0.41541  -0.41517
 Alpha  occ. eigenvalues --   -0.41492  -0.41379  -0.41010  -0.40926  -0.40866
 Alpha  occ. eigenvalues --   -0.40716  -0.40689  -0.40526  -0.40248  -0.40214
 Alpha  occ. eigenvalues --   -0.40184  -0.40004  -0.39865  -0.39858  -0.39492
 Alpha  occ. eigenvalues --   -0.39205  -0.38935  -0.38806  -0.38761  -0.38626
 Alpha  occ. eigenvalues --   -0.38317  -0.38280  -0.38103  -0.38025  -0.37509
 Alpha  occ. eigenvalues --   -0.37466  -0.37214  -0.37081  -0.36965  -0.36891
 Alpha  occ. eigenvalues --   -0.36619  -0.36543  -0.36524  -0.36423  -0.36320
 Alpha  occ. eigenvalues --   -0.36155  -0.35993  -0.35886  -0.35858  -0.35831
 Alpha  occ. eigenvalues --   -0.35781  -0.35637  -0.35297  -0.35184  -0.34782
 Alpha  occ. eigenvalues --   -0.34710  -0.34574  -0.34289  -0.34223  -0.34004
 Alpha  occ. eigenvalues --   -0.33930  -0.33441  -0.33147  -0.32441  -0.32247
 Alpha  occ. eigenvalues --   -0.32170  -0.31700  -0.31418  -0.31363  -0.30979
 Alpha  occ. eigenvalues --   -0.30947  -0.30570  -0.30377  -0.29901  -0.29804
 Alpha  occ. eigenvalues --   -0.29629  -0.29311  -0.28801  -0.28459  -0.28409
 Alpha  occ. eigenvalues --   -0.28216  -0.27979  -0.27607  -0.27318  -0.27208
 Alpha  occ. eigenvalues --   -0.27193  -0.27139  -0.27004  -0.26773  -0.26532
 Alpha  occ. eigenvalues --   -0.26521  -0.26170  -0.26000  -0.25953  -0.25861
 Alpha  occ. eigenvalues --   -0.25533  -0.25485  -0.24960  -0.24833  -0.24467
 Alpha  occ. eigenvalues --   -0.24242  -0.23794  -0.23542  -0.22806  -0.22741
 Alpha  occ. eigenvalues --   -0.22494  -0.21500  -0.21072
 Alpha virt. eigenvalues --   -0.08975  -0.06788  -0.06769  -0.06329  -0.05395
 Alpha virt. eigenvalues --   -0.04856  -0.04759  -0.04404  -0.03696  -0.02949
 Alpha virt. eigenvalues --   -0.02925  -0.02842  -0.02565  -0.02110  -0.01968
 Alpha virt. eigenvalues --   -0.01675  -0.01349  -0.00826  -0.00485   0.00143
 Alpha virt. eigenvalues --    0.00339   0.00725   0.01311   0.01468   0.02504
 Alpha virt. eigenvalues --    0.03123   0.03581   0.04282   0.04348   0.04578
 Alpha virt. eigenvalues --    0.04728   0.04843   0.05166   0.05371   0.05500
 Alpha virt. eigenvalues --    0.05584   0.05653   0.05794   0.06034   0.06233
 Alpha virt. eigenvalues --    0.06284   0.06543   0.06604   0.06675   0.06884
 Alpha virt. eigenvalues --    0.07128   0.07226   0.07410   0.07441   0.07545
 Alpha virt. eigenvalues --    0.07760   0.07907   0.08030   0.08172   0.08333
 Alpha virt. eigenvalues --    0.08466   0.08727   0.08787   0.09004   0.09061
 Alpha virt. eigenvalues --    0.09126   0.09173   0.09273   0.09425   0.09552
 Alpha virt. eigenvalues --    0.09750   0.09890   0.09971   0.10051   0.10139
 Alpha virt. eigenvalues --    0.10232   0.10323   0.10443   0.10691   0.10723
 Alpha virt. eigenvalues --    0.10742   0.10896   0.11024   0.11121   0.11175
 Alpha virt. eigenvalues --    0.11239   0.11270   0.11421   0.11467   0.11605
 Alpha virt. eigenvalues --    0.11785   0.11855   0.11941   0.12134   0.12232
 Alpha virt. eigenvalues --    0.12309   0.12357   0.12535   0.12625   0.12824
 Alpha virt. eigenvalues --    0.12968   0.13046   0.13183   0.13404   0.13451
 Alpha virt. eigenvalues --    0.13586   0.13655   0.13786   0.13829   0.13932
 Alpha virt. eigenvalues --    0.14046   0.14097   0.14229   0.14303   0.14378
 Alpha virt. eigenvalues --    0.14458   0.14529   0.14683   0.14783   0.14834
 Alpha virt. eigenvalues --    0.14918   0.15163   0.15233   0.15275   0.15348
 Alpha virt. eigenvalues --    0.15460   0.15483   0.15650   0.15797   0.15881
 Alpha virt. eigenvalues --    0.16103   0.16170   0.16260   0.16302   0.16471
 Alpha virt. eigenvalues --    0.16586   0.16675   0.16942   0.17131   0.17374
 Alpha virt. eigenvalues --    0.17483   0.17566   0.17737   0.18030   0.18127
 Alpha virt. eigenvalues --    0.18138   0.18292   0.18513   0.18610   0.18746
 Alpha virt. eigenvalues --    0.19119   0.19154   0.19200   0.19300   0.19433
 Alpha virt. eigenvalues --    0.19436   0.19615   0.19680   0.19764   0.19879
 Alpha virt. eigenvalues --    0.19926   0.20073   0.20116   0.20225   0.20273
 Alpha virt. eigenvalues --    0.20331   0.20454   0.20496   0.20558   0.20711
 Alpha virt. eigenvalues --    0.20930   0.20975   0.21044   0.21122   0.21146
 Alpha virt. eigenvalues --    0.21218   0.21337   0.21428   0.21528   0.21602
 Alpha virt. eigenvalues --    0.21680   0.21755   0.21828   0.22035   0.22179
 Alpha virt. eigenvalues --    0.22292   0.22373   0.22404   0.22460   0.22529
 Alpha virt. eigenvalues --    0.22601   0.22742   0.22806   0.22905   0.23044
 Alpha virt. eigenvalues --    0.23194   0.23338   0.23540   0.23586   0.23727
 Alpha virt. eigenvalues --    0.23926   0.24055   0.24126   0.24190   0.24326
 Alpha virt. eigenvalues --    0.24407   0.24500   0.24635   0.24719   0.24774
 Alpha virt. eigenvalues --    0.24925   0.24999   0.25147   0.25267   0.25361
 Alpha virt. eigenvalues --    0.25493   0.25599   0.25633   0.25735   0.25770
 Alpha virt. eigenvalues --    0.25834   0.25988   0.26147   0.26252   0.26397
 Alpha virt. eigenvalues --    0.26568   0.26629   0.26706   0.26819   0.26841
 Alpha virt. eigenvalues --    0.26943   0.27117   0.27363   0.27370   0.27489
 Alpha virt. eigenvalues --    0.27577   0.27727   0.27788   0.27801   0.27858
 Alpha virt. eigenvalues --    0.28104   0.28188   0.28275   0.28468   0.28506
 Alpha virt. eigenvalues --    0.28631   0.28658   0.28808   0.28873   0.29133
 Alpha virt. eigenvalues --    0.29205   0.29324   0.29342   0.29447   0.29700
 Alpha virt. eigenvalues --    0.29821   0.29884   0.29929   0.30070   0.30089
 Alpha virt. eigenvalues --    0.30166   0.30221   0.30259   0.30422   0.30463
 Alpha virt. eigenvalues --    0.30511   0.30580   0.30747   0.30858   0.30909
 Alpha virt. eigenvalues --    0.30969   0.31195   0.31346   0.31509   0.31532
 Alpha virt. eigenvalues --    0.31623   0.31781   0.31879   0.31909   0.32011
 Alpha virt. eigenvalues --    0.32049   0.32214   0.32370   0.32402   0.32610
 Alpha virt. eigenvalues --    0.32663   0.32759   0.32836   0.32892   0.33032
 Alpha virt. eigenvalues --    0.33051   0.33186   0.33281   0.33413   0.33505
 Alpha virt. eigenvalues --    0.33591   0.33763   0.33845   0.33873   0.33921
 Alpha virt. eigenvalues --    0.34107   0.34159   0.34248   0.34477   0.34519
 Alpha virt. eigenvalues --    0.34583   0.34666   0.34780   0.34921   0.35101
 Alpha virt. eigenvalues --    0.35195   0.35413   0.35548   0.35632   0.35667
 Alpha virt. eigenvalues --    0.35868   0.35929   0.36088   0.36092   0.36191
 Alpha virt. eigenvalues --    0.36409   0.36487   0.36640   0.36658   0.36716
 Alpha virt. eigenvalues --    0.36964   0.37017   0.37194   0.37214   0.37334
 Alpha virt. eigenvalues --    0.37518   0.37577   0.37679   0.37796   0.37859
 Alpha virt. eigenvalues --    0.37964   0.38054   0.38106   0.38307   0.38391
[...]
 Alpha virt. eigenvalues --    6.07756   6.08055   6.08229   6.09344   6.10185
 Alpha virt. eigenvalues --    6.11690   6.11844   6.13160   6.13792   6.15260
 Alpha virt. eigenvalues --    6.16170   6.16987   6.17053   6.17574   6.18982
 Alpha virt. eigenvalues --    6.21263   6.22572   6.22648   6.23933   6.24419
 Alpha virt. eigenvalues --    6.25357   6.27705   6.31442   6.35328   6.36235
 Alpha virt. eigenvalues --    6.39341   6.39460   6.40836   6.42579   6.42941
 Alpha virt. eigenvalues --    6.43481   6.46263   6.46935   6.47063   6.47877
 Alpha virt. eigenvalues --    6.49062   6.54044   6.54590   6.54688   6.56573
 Alpha virt. eigenvalues --    6.56851   6.57524   6.58347   6.61035   6.63544
 Alpha virt. eigenvalues --    6.67220   6.69266   6.69669   6.71355   6.74824
 Alpha virt. eigenvalues --    6.75528   6.76194   6.77587   6.78260   6.78447
 Alpha virt. eigenvalues --    6.78879   6.79278   6.79707   6.80594   6.81966
 Alpha virt. eigenvalues --    6.82506   6.82692   6.83009   6.83148   6.83830
 Alpha virt. eigenvalues --    6.83987   6.84003   6.84435   6.84689   6.84810
 Alpha virt. eigenvalues --    6.85044   6.85129   6.85891   6.85901   6.86287
 Alpha virt. eigenvalues --    6.86312   6.86445   6.86602   6.86744   6.87018
 Alpha virt. eigenvalues --    6.87171   6.87621   6.88111   6.88378   6.90504
 Alpha virt. eigenvalues --    6.91422   6.91821   6.94449   6.95309   6.96208
 Alpha virt. eigenvalues --    6.97137   6.97293   6.97567   6.98180   6.98227
 Alpha virt. eigenvalues --    6.98427   6.99980   7.01322   7.01384   7.01935
 Alpha virt. eigenvalues --    7.03393   7.05130   7.05703   7.05984   7.06353
 Alpha virt. eigenvalues --    7.08166   7.09284   7.09695   7.10785   7.11109
 Alpha virt. eigenvalues --    7.12185   7.13392   7.13434   7.14115   7.17017
 Alpha virt. eigenvalues --    7.19837   7.22962   7.24501   7.25823   7.26089
 Alpha virt. eigenvalues --    7.33639   7.34944   7.36301   7.36503   7.36609
 Alpha virt. eigenvalues --    7.37172   7.40318   7.41512   7.43793   7.43829
 Alpha virt. eigenvalues --    7.46653   7.47041   7.48337   7.48779   7.51022
 Alpha virt. eigenvalues --    7.55840   7.58082   7.59069   7.59199   7.62794
 Alpha virt. eigenvalues --    7.62914   7.65271   7.65282   7.75850   7.87901
 Alpha virt. eigenvalues --    7.90071   7.98199   8.06147   8.26881   8.28529
 Alpha virt. eigenvalues --    8.30201   8.30607   8.31290   8.31528   8.38897
 Alpha virt. eigenvalues --    8.41887   8.45199   8.45703   8.49441   8.49714
 Alpha virt. eigenvalues --    8.57811   8.57907   8.57927   8.58761   8.67539
 Alpha virt. eigenvalues --    8.67553   8.75312   8.75468   8.78324   8.78741
 Alpha virt. eigenvalues --    8.78860   8.80111   8.89013   8.90486   8.94901
 Alpha virt. eigenvalues --    8.95880   8.98227   9.00242   9.00759   9.04101
 Alpha virt. eigenvalues --    9.04797   9.05826   9.09670   9.10350   9.10989
 Alpha virt. eigenvalues --    9.15914   9.17195   9.17298   9.52861   9.57655
 Alpha virt. eigenvalues --    9.74552   9.83912  10.15938  10.18759  22.55989
 Alpha virt. eigenvalues --   22.63852  22.65783  22.69564  22.73080  22.78734
 Alpha virt. eigenvalues --   22.78848  22.80868  22.88590  22.88679  22.89123
 Alpha virt. eigenvalues --   22.90237  22.93891  22.96325  23.01931  23.03766
 Alpha virt. eigenvalues --   23.04338  23.04867  23.06586  23.07647  23.08330
 Alpha virt. eigenvalues --   23.09005  23.09293  23.09944  23.10163  23.10402
 Alpha virt. eigenvalues --   23.10790  23.12493  23.13800  23.14564  23.14726
 Alpha virt. eigenvalues --   23.16509  23.17346  23.17638  23.18532  23.18903
 Alpha virt. eigenvalues --   23.19761  23.20359  23.20801  23.21573  23.22457
 Alpha virt. eigenvalues --   23.22746  23.24041  23.24692  23.24922  23.25742
 Alpha virt. eigenvalues --   23.26334  23.27000  23.27231  23.29367  23.29706
 Alpha virt. eigenvalues --   23.29910  23.30984  23.31189  23.31636  23.32502
 Alpha virt. eigenvalues --   23.33876  23.35453  23.36759  23.39701  23.40316
 Alpha virt. eigenvalues --   23.43384  23.43908  23.44154  23.44758  23.46552
 Alpha virt. eigenvalues --   23.47913  23.48582  23.52240  23.56467  23.56655
 Alpha virt. eigenvalues --   23.60320  23.61894  23.62838  23.69393  23.73918
 Alpha virt. eigenvalues --   23.79969  23.81026  23.90212  23.90622  24.12772
 Alpha virt. eigenvalues --   24.13219  24.13295  24.17003  24.22665  24.27343
 Alpha virt. eigenvalues --   24.34107  24.44213  32.50976  32.53900  32.82112
 Alpha virt. eigenvalues --   33.03114  33.26424  33.29015  34.64088  34.68443
 Alpha virt. eigenvalues --   35.01972  43.21219  43.94517  43.95908  44.00574
 Alpha virt. eigenvalues --   44.14189  44.26036  44.27974  44.31378  44.47010
 Alpha virt. eigenvalues --   57.10295  57.16218  57.23147  57.24479  57.51168
 Alpha virt. eigenvalues --   57.51639  57.51996  57.60440 117.93655
          Condensed to atoms (all electrons):
 Mulliken charges:
               1
     1  C    0.192992
     2  C   -0.081281
     3  C    0.013466
     4  C   -0.137959
     5  C    0.304293
     6  N   -0.335741
     7  H    0.136135
     8  C   -0.043306
     9  C    0.142678
    10  C   -0.236600
    11  C   -0.239231
    12  C   -0.084825
    13  H    0.150781
    14  H    0.156230
    15  H    0.154450
    16  C    0.296814
    17  C    0.033235
    18  C   -0.211761
    19  C   -0.227708
    20  C   -0.159851
    21  H    0.145797
    22  C   -0.194162
    23  H    0.230662
    24  C   -0.137810
    25  H    0.149842
    26  H    0.150747
    27  H    0.155238
    28  F   -0.234914
    29  C   -0.286280
    30  H    0.106850
    31  H    0.114635
    32  H    0.100458
    33  C   -0.019164
    34  C   -0.033419
    35  C   -0.018391
    36  H    0.102126
    37  H    0.093963
    38  C   -0.011054
    39  H    0.084707
    40  H    0.110402
    41  H    0.089067
    42  H    0.100961
    43  H    0.086087
    44  H    0.102777
    45  N    0.020079
    46  O   -0.338356
    47  H    0.192093
    48  C   -0.134409
    49  C   -0.194287
    50  C   -0.066743
    51  C   -0.054135
    52  C   -0.130848
    53  C   -0.143497
    54  H    0.152952
    55  H    0.160415
    56  C    0.127106
    57  C   -0.084619
    58  H    0.145592
    59  H    0.151813
    60  C   -0.067241
    61  C   -0.077369
    62  H    0.143829
    63  C    0.056183
    64  C   -0.079856
    65  C   -0.054528
    66  C   -0.151281
    67  C   -0.040669
    68  C   -0.193543
    69  C   -0.086987
    70  C   -0.142144
    71  C   -0.139353
    72  H    0.159123
    73  H    0.143278
    74  C   -0.139502
    75  H    0.144968
    76  H    0.153271
    77  H    0.151821
    78  S    0.836691
    79  O   -0.512047
    80  O   -0.521319
    81  S    0.895634
    82  O   -0.512638
    83  O   -0.566495
    84  N   -0.457920
    85  C    0.078719
    86  C    0.131330
    87  C    0.122442
    88  C    0.242208
    89  C   -0.037443
    90  C   -0.198945
    91  C   -0.270042
    92  C   -0.071009
    93  C   -0.072832
    94  H    0.158622
    95  C   -0.179864
    96  H    0.157059
    97  H    0.155713
    98  H    0.151920
    99  C   -0.082662
   100  C   -0.150312
   101  C   -0.174263
   102  C   -0.107325
   103  C   -0.133563
   104  H    0.160395
   105  C   -0.137506
   106  H    0.159129
   107  H    0.157786
   108  H    0.158280
   109  C    0.569590
   110  F   -0.192859
   111  F   -0.191644
   112  F   -0.186954
   113  C    0.559662
   114  F   -0.188670
   115  F   -0.188175
   116  F   -0.185925
   117  I   -0.019743
   118  N   -0.335881
   119  C    0.302772
   120  C   -0.071319
   121  C   -0.119049
   122  C    0.224185
   123  O   -0.344107
   124  O   -0.395032
   125  H    0.067274
   126  H    0.114488
   127  H    0.099332
   128  H    0.099164
   129  C    0.188880
   130  C   -0.215051
   131  C    0.040447
   132  C   -0.161587
   133  C    0.172340
   134  N   -0.239723
   135  H    0.143426
   136  C   -0.148350
   137  C    0.120631
   138  C   -0.201293
   139  C   -0.241568
   140  C   -0.126322
   141  H    0.156115
   142  H    0.156633
   143  H    0.150030
   144  C    0.439305
   145  C    0.018719
   146  C   -0.204078
   147  C   -0.181653
   148  C   -0.158751
   149  H    0.151133
   150  C   -0.170563
   151  H    0.151283
   152  C   -0.141905
   153  H    0.153093
   154  H    0.152005
   155  H    0.154402
   156  F   -0.219430
   157  C   -0.264740
   158  H    0.092454
   159  H    0.115411
   160  H    0.112469
   161  C   -0.021949
   162  C   -0.075232
   163  C   -0.000594
   164  H    0.089546
   165  H    0.080876
   166  C    0.010790
   167  H    0.100160
   168  H    0.087834
   169  H    0.069230
   170  H    0.100272
   171  H    0.064190
   172  H    0.098203
   173  N   -0.128337
   174  O   -0.337168
   175  H    0.156283
   176  H    0.320198
 Sum of Mulliken charges =  -0.00000
 Mulliken charges with hydrogens summed into heavy atoms:
               1
     1  C    0.192992
     2  C    0.110811
     3  C    0.013466
     4  C   -0.001824
     5  C    0.304293
     6  N   -0.335741
     8  C   -0.043306
     9  C    0.142678
    10  C   -0.085819
    11  C   -0.084782
    12  C    0.071405
    16  C    0.296814
    17  C    0.033235
    18  C   -0.065964
    19  C    0.002954
    20  C   -0.010008
    22  C   -0.043415
    24  C    0.017428
    28  F   -0.234914
    29  C    0.035663
    33  C    0.176925
    34  C    0.161691
    35  C    0.171637
    38  C    0.177810
    45  N    0.020079
    46  O   -0.338356
    48  C    0.018543
    49  C   -0.033872
    50  C   -0.066743
    51  C   -0.054135
    52  C    0.014744
    53  C    0.008315
    56  C    0.127106
    57  C    0.059210
    60  C   -0.067241
    61  C   -0.077369
    63  C    0.056183
    64  C   -0.079856
    65  C   -0.054528
    66  C   -0.151281
    67  C   -0.040669
    68  C   -0.034420
    69  C    0.056290
    70  C    0.002824
    71  C    0.013918
    74  C    0.012319
    78  S    0.836691
    79  O   -0.512047
    80  O   -0.521319
    81  S    0.895634
    82  O   -0.512638
    83  O   -0.566495
    84  N   -0.457920
    85  C    0.078719
    86  C    0.131330
    87  C    0.122442
    88  C    0.242208
    89  C   -0.037443
    90  C   -0.198945
    91  C   -0.111421
    92  C    0.086050
    93  C    0.082881
    95  C   -0.027944
    99  C   -0.082662
   100  C   -0.150312
   101  C   -0.013869
   102  C    0.051803
   103  C    0.024222
   105  C    0.020774
   109  C    0.569590
   110  F   -0.192859
   111  F   -0.191644
   112  F   -0.186954
   113  C    0.559662
   114  F   -0.188670
   115  F   -0.188175
   116  F   -0.185925
   117  I   -0.019743
   118  N   -0.335881
   119  C    0.302772
   120  C    0.110443
   121  C    0.079448
   122  C    0.224185
   123  O   -0.344107
   124  O   -0.074834
   129  C    0.188880
   130  C   -0.058768
   131  C    0.040447
   132  C   -0.018161
   133  C    0.172340
   134  N   -0.239723
   136  C   -0.148350
   137  C    0.120631
   138  C   -0.045178
   139  C   -0.091538
   140  C    0.030311
   144  C    0.439305
   145  C    0.018719
   146  C   -0.052945
   147  C   -0.030370
   148  C   -0.005658
   150  C   -0.018558
   152  C    0.012498
   156  F   -0.219430
   157  C    0.055594
   161  C    0.148473
   162  C    0.112761
   163  C    0.168908
   166  C    0.173183
   173  N   -0.128337
   174  O   -0.337168
 Electronic spatial extent (au):  <R**2>=         194713.8458
 Charge=              0.0000 electrons
 Dipole moment (field-independent basis, Debye):
    X=            -21.5817    Y=            -30.8379    Z=              0.8407  Tot=             37.6490
 Quadrupole moment (field-independent basis, Debye-Ang):
   XX=           -547.7120   YY=           -299.4938   ZZ=           -643.2096
   XY=            168.3033   XZ=            -17.4451   YZ=            -60.1914
 Traceless Quadrupole moment (field-independent basis, Debye-Ang):
   XX=            -50.9069   YY=            197.3113   ZZ=           -146.4045
   XY=            168.3033   XZ=            -17.4451   YZ=            -60.1914
 Octapole moment (field-independent basis, Debye-Ang**2):
  XXX=           1739.7788  YYY=           1456.6692  ZZZ=          -1124.5670  XYY=          -1152.4719
  XXY=            318.9453  XXZ=            -71.9577  XZZ=            750.9194  YZZ=           1475.5795
  YYZ=            503.8400  XYZ=            302.8821
 Hexadecapole moment (field-independent basis, Debye-Ang**3):
 XXXX=         -83868.7701 YYYY=         -89396.0924 ZZZZ=         -22767.0226 XXXY=         -26408.2852
 XXXZ=           3378.7587 YYYX=          -7316.6562 YYYZ=           -569.0527 ZZZX=           4355.2164
 ZZZY=           9868.6502 XXYY=         -25331.2184 XXZZ=         -17458.8078 YYZZ=         -24346.9450
 XXYZ=           -225.3686 YYXZ=          -4082.7950 ZZXY=          -9840.0868
 N-N= 2.507026289172D+04 E-N=-6.446379594021D+04  KE= 5.931064183959D+03
 Leave Link  601 at Wed Feb 12 10:29:38 2025, MaxMem=  7247757312 cpu:              32.6 elap:               1.7
 (Enter /ihome/crc/install/gaussian/c01/avx2/tar/g16/l9999.exe)
 Unable to Open any file for archive entry.
 1\1\GINC-SMP-N256\SP\RB3LYP\def2TZVPP\C86H65F8I1N6O8S2\BIM12\12-Feb-20
 25\0\\#p b3lyp def2tzvpp scf=maxcycle=128 nosymm scrf=(smd,solvent=pro
 pylethanoate) empiricaldispersion=gd3bj\\alkyneCF3_R-ax-R_01_iodi_TS2\
 \0,1\C,0,-2.274366,-3.242113,-0.843179\C,0,-1.183636,-4.213568,-0.7127
 03\C,0,0.058271,-3.634787,-0.181582\C,0,-0.010752,-2.475769,0.514159\C
 ,0,-1.309271,-1.861705,0.705982\N,0,-2.353388,-2.166328,-0.132717\H,0,
 0.884468,-2.000879,0.90649\C,0,-3.357841,-3.543831,-1.817875\C,0,-3.07
 7791,-3.740173,-3.187425\C,0,-4.111969,-4.154561,-4.036731\C,0,-5.6992
 87,-4.110607,-2.211736\C,0,-5.403764,-4.348732,-3.552061\H,0,-3.902102
 ,-4.296229,-5.098149\H,0,-6.196271,-4.670274,-4.229616\H,0,-6.702216,-
 4.238758,-1.802542\C,0,-4.671234,-3.702622,-1.373995\C,0,-1.718284,-3.
 466952,-3.728757\C,0,-1.134811,-4.333592,-4.664265\C,0,-0.995339,-2.33
 8824,-3.306721\C,0,0.146595,-4.084658,-5.154064\H,0,-1.680092,-5.22195
 8,-4.990422\C,0,0.285803,-2.091773,-3.797719\H,0,-1.421497,-1.631411,-
 2.592349\C,0,0.861049,-2.96558,-4.721353\H,0,0.593008,-4.774033,-5.872
 929\H,0,0.82244,-1.206656,-3.449439\H,0,1.865123,-2.775031,-5.104203\F
 ,0,-4.940726,-3.518022,-0.076551\C,0,1.335626,-4.36938,-0.422999\H,0,1
 .256149,-5.401467,-0.046666\H,0,1.525425,-4.430151,-1.506404\H,0,2.184
 478,-3.871688,0.060976\C,0,-2.885463,-0.431262,1.901189\C,0,-0.621579,
 -0.652442,2.739819\C,0,-3.387668,-0.92013,3.254089\H,0,-3.556721,-0.73
 2327,1.094895\H,0,-2.789241,0.66511,1.914575\C,0,-1.219771,-1.123558,4
 .063546\H,0,0.353592,-1.118061,2.576497\H,0,-0.481553,0.437441,2.74150
 3\H,0,-3.527767,-2.018234,3.217141\H,0,-4.354495,-0.449033,3.475641\H,
 0,-1.274191,-2.229289,4.065347\H,0,-0.570657,-0.801796,4.88824\N,0,-1.
 552928,-0.990693,1.664494\O,0,-2.493553,-0.571555,4.280698\H,0,-1.0597
 34,-4.87793,-1.571984\C,0,2.536765,6.264894,-2.430051\C,0,1.969333,5.3
 33023,-1.594099\C,0,2.774147,4.36027,-0.9356\C,0,4.176242,4.361335,-1.
 186639\C,0,4.737217,5.344664,-2.049381\C,0,3.936073,6.279419,-2.655157
 \H,0,1.902241,6.99837,-2.930024\H,0,0.889808,5.331376,-1.443111\C,0,2.
 226538,3.370265,-0.052764\C,0,4.989872,3.372413,-0.588891\H,0,5.814967
 ,5.331534,-2.223124\H,0,4.370269,7.028826,-3.318794\C,0,4.453706,2.386
 206,0.220018\C,0,3.047746,2.396827,0.486233\H,0,6.0643,3.375952,-0.781
 885\C,0,0.751077,3.421921,0.225936\C,0,-0.116464,2.455536,-0.249913\C,
 0,0.247367,4.513779,1.009117\C,0,-1.531572,2.581622,-0.063581\C,0,-1.1
 55273,4.616833,1.230996\C,0,1.100578,5.481522,1.609558\C,0,-2.020264,3
 .6515,0.664981\C,0,-1.667871,5.6907,2.011275\C,0,0.579136,6.502908,2.3
 67535\H,0,2.180008,5.402052,1.478442\H,0,-3.098726,3.756761,0.798441\C
 ,0,-0.819526,6.616241,2.565507\H,0,-2.747105,5.756319,2.162875\H,0,1.2
 49778,7.231034,2.826443\H,0,-1.216702,7.435808,3.166451\S,0,2.235449,1
 .095922,1.410893\O,0,1.438103,1.774028,2.395229\O,0,3.203786,0.173847,
 1.917895\S,0,0.617364,0.956329,-0.905656\O,0,1.51393,1.350959,-1.95210
 5\O,0,-0.431594,0.056095,-1.285811\N,0,1.354187,0.337067,0.342072\C,0,
 5.373912,1.420383,0.745438\C,0,6.256032,0.676723,1.120478\C,0,-2.50677
 5,1.712496,-0.657872\C,0,-3.43806,1.110151,-1.151094\C,0,-4.489792,0.4
 00989,-1.815418\C,0,-5.813272,0.390996,-1.3292\C,0,-4.209692,-0.264614
 ,-3.020192\C,0,-6.819265,-0.269002,-2.030534\C,0,-5.223063,-0.905968,-
 3.72537\H,0,-3.188609,-0.248353,-3.403679\C,0,-6.526742,-0.914727,-3.2
 30979\H,0,-7.837584,-0.266365,-1.641897\H,0,-4.989926,-1.401617,-4.668
 805\H,0,-7.321061,-1.422179,-3.780345\C,0,7.254846,-0.234051,1.59223\C
 ,0,8.613931,-0.086601,1.246833\C,0,6.879402,-1.303497,2.419668\C,0,9.5
 64598,-0.985951,1.719495\C,0,7.835393,-2.199748,2.889163\H,0,5.826884,
 -1.414026,2.683346\C,0,9.176606,-2.043932,2.54178\H,0,10.61167,-0.8587
 6,1.444107\H,0,7.528868,-3.026459,3.531813\H,0,9.925847,-2.745864,2.90
 9859\C,0,9.030862,1.055698,0.35671\F,0,8.724194,2.243856,0.88888\F,0,8
 .431705,1.005414,-0.837725\F,0,10.347051,1.057812,0.132509\C,0,-6.1494
 45,1.127054,-0.058519\F,0,-5.84523,2.427195,-0.13691\F,0,-5.485516,0.6
 44378,1.000636\F,0,-7.448801,1.048279,0.23486\I,0,-1.978124,-5.635399,
 0.883151\N,0,-2.833274,-7.051804,2.766552\C,0,-3.357881,-8.253392,2.72
 8199\C,0,-3.960934,-8.694333,4.044767\C,0,-3.758977,-7.474612,4.934175
 \C,0,-3.021717,-6.485485,4.031752\O,0,-2.6607,-5.379933,4.339917\O,0,-
 3.349152,-8.982265,1.688798\H,0,-5.014806,-8.957991,3.890756\H,0,-3.43
 7097,-9.598448,4.388574\H,0,-3.15096,-7.668812,5.827635\H,0,-4.700422,
 -7.013549,5.264183\C,0,-6.394161,-10.171041,1.377876\C,0,-7.51203,-10.
 979785,1.311415\C,0,-7.34504,-12.376427,1.331981\C,0,-6.057056,-12.891
 459,1.374885\C,0,-4.946627,-12.018798,1.388707\N,0,-5.146318,-10.68780
 2,1.418158\H,0,-5.902416,-13.968533,1.346959\C,0,-6.47528,-8.686522,1.
 469379\C,0,-7.185461,-8.00348,2.481946\C,0,-7.111458,-6.601828,2.52457
 5\C,0,-5.694791,-6.546785,0.570386\C,0,-6.368675,-5.881978,1.591375\H,
 0,-7.630206,-6.071589,3.324444\H,0,-6.307666,-4.795027,1.657094\H,0,-5
 .105275,-6.028116,-0.184738\C,0,-5.76664,-7.928744,0.53227\C,0,-8.0165
 4,-8.698806,3.510386\C,0,-9.291199,-8.189997,3.801694\C,0,-7.574504,-9
 .828799,4.216949\C,0,-10.101129,-8.790912,4.764278\H,0,-9.658913,-7.32
 0578,3.253092\C,0,-8.381424,-10.425792,5.183202\H,0,-6.591494,-10.2573
 07,4.01527\C,0,-9.648669,-9.911048,5.459666\H,0,-11.092084,-8.381484,4
 .967386\H,0,-8.01451,-11.298912,5.72544\H,0,-10.279977,-10.382135,6.21
 4848\F,0,-5.128015,-8.574105,-0.447731\C,0,-8.546073,-13.273215,1.2989
 06\H,0,-8.261273,-14.331972,1.273713\H,0,-9.167977,-13.09486,2.18928\H
 ,0,-9.167221,-13.04913,0.419643\C,0,-2.645776,-11.829094,0.532463\C,0,
 -3.353096,-13.864253,1.64887\C,0,-1.270225,-12.013224,1.144183\H,0,-2.
 862298,-10.766074,0.393555\H,0,-2.665678,-12.318465,-0.459396\C,0,-1.9
 36692,-13.971837,2.200556\H,0,-4.052082,-14.261823,2.395895\H,0,-3.444
 748,-14.464609,0.72372\H,0,-1.218799,-11.462978,2.103373\H,0,-0.500672
 ,-11.615003,0.470146\H,0,-1.905901,-13.489029,3.196543\H,0,-1.661854,-
 15.028668,2.316582\N,0,-3.65107,-12.462929,1.390369\O,0,-0.993677,-13.
 379031,1.345763\H,0,-8.505752,-10.532488,1.276328\H,0,-4.154591,-9.830
 47,1.611884\\Version=ES64L-G16RevC.01\HF=-6141.997626\RMSD=2.701e-09\D
 ipole=-8.4908892,-12.1325482,0.3307762\Quadrupole=-37.848003,146.69614
 41,-108.848141,125.1293948,-12.9699694,-44.7508629\PG=C01 [X(C86H65F8I
 1N6O8S2)]\\@
 The archive entry for this job was punched.


 The cat could very well be man's best friend
 but would never stoop to admitting it.
                               -- Doug Larson
 Job cpu time:       1 days 18 hours  0 minutes 13.2 seconds.
 Elapsed time:       0 days  1 hours 19 minutes 15.4 seconds.
 File lengths (MBytes):  RWF=  12787 Int=      0 D2E=      0 Chk=   1111 Scr=      1
 Normal termination of Gaussian 16 at Wed Feb 12 10:29:40 2025.
