 Entering Gaussian System, Link 0=g16
 Initial command:
 /opt/packages/gaussian/g16RevC.01/g16/l1.exe "/local/Gau-36207.inp" -scrdir="/local/"
 Entering Link 1 = /opt/packages/gaussian/g16RevC.01/g16/l1.exe PID=     36208.
  
 Copyright (c) 1988-2019, Gaussian, Inc.  All Rights Reserved.
  
 This is part of the Gaussian(R) 16 program.  It is based on
 the Gaussian(R) 09 system (copyright 2009, Gaussian, Inc.),
 the Gaussian(R) 03 system (copyright 2003, Gaussian, Inc.),
 the Gaussian(R) 98 system (copyright 1998, Gaussian, Inc.),
 the Gaussian(R) 94 system (copyright 1995, Gaussian, Inc.),
 the Gaussian 92(TM) system (copyright 1992, Gaussian, Inc.),
 the Gaussian 90(TM) system (copyright 1990, Gaussian, Inc.),
 the Gaussian 88(TM) system (copyright 1988, Gaussian, Inc.),
 the Gaussian 86(TM) system (copyright 1986, Carnegie Mellon
 University), and the Gaussian 82(TM) system (copyright 1983,
 Carnegie Mellon University). Gaussian is a federally registered
 trademark of Gaussian, Inc.
  
 This software contains proprietary and confidential information,
 including trade secrets, belonging to Gaussian, Inc.
  
 This software is provided under written license and may be
 used, copied, transmitted, or stored only in accord with that
 written license.
  
 The following legend is applicable only to US Government
 contracts under FAR:
  
                    RESTRICTED RIGHTS LEGEND
  
 Use, reproduction and disclosure by the US Government is
 subject to restrictions as set forth in subparagraphs (a)
 and (c) of the Commercial Computer Software - Restricted
 Rights clause in FAR 52.227-19.
  
 Gaussian, Inc.
 340 Quinnipiac St., Bldg. 40, Wallingford CT 06492
  
  
 ---------------------------------------------------------------
 Warning -- This program may not be used in any manner that
 competes with the business of Gaussian, Inc. or will provide
 assistance to any competitor of Gaussian, Inc.  The licensee
 of this program is prohibited from giving any competitor of
 Gaussian, Inc. access to this program.  By using this program,
 the user acknowledges that Gaussian, Inc. is engaged in the
 business of creating and licensing software in the field of
 computational chemistry and represents and warrants to the
 licensee that it is not a competitor of Gaussian, Inc. and that
 it will not use this program in any manner prohibited above.
 ---------------------------------------------------------------
  

 Cite this work as:
 Gaussian 16, Revision C.01,
 M. J. Frisch, G. W. Trucks, H. B. Schlegel, G. E. Scuseria, 
 M. A. Robb, J. R. Cheeseman, G. Scalmani, V. Barone, 
 G. A. Petersson, H. Nakatsuji, X. Li, M. Caricato, A. V. Marenich, 
 J. Bloino, B. G. Janesko, R. Gomperts, B. Mennucci, H. P. Hratchian, 
 J. V. Ortiz, A. F. Izmaylov, J. L. Sonnenberg, D. Williams-Young, 
 F. Ding, F. Lipparini, F. Egidi, J. Goings, B. Peng, A. Petrone, 
 T. Henderson, D. Ranasinghe, V. G. Zakrzewski, J. Gao, N. Rega, 
 G. Zheng, W. Liang, M. Hada, M. Ehara, K. Toyota, R. Fukuda, 
 J. Hasegawa, M. Ishida, T. Nakajima, Y. Honda, O. Kitao, H. Nakai, 
 T. Vreven, K. Throssell, J. A. Montgomery, Jr., J. E. Peralta, 
 F. Ogliaro, M. J. Bearpark, J. J. Heyd, E. N. Brothers, K. N. Kudin, 
 V. N. Staroverov, T. A. Keith, R. Kobayashi, J. Normand, 
 K. Raghavachari, A. P. Rendell, J. C. Burant, S. S. Iyengar, 
 J. Tomasi, M. Cossi, J. M. Millam, M. Klene, C. Adamo, R. Cammi, 
 J. W. Ochterski, R. L. Martin, K. Morokuma, O. Farkas, 
 J. B. Foresman, and D. J. Fox, Gaussian, Inc., Wallingford CT, 2019.
 
 ******************************************
 Gaussian 16:  ES64L-G16RevC.01  3-Jul-2019
                12-Jun-2024 
 ******************************************
 %nprocshared=32
 Will use up to   32 processors via shared memory.
 %mem=64GB
 ----------------------------------------------------------------------
 #p b3lyp def2tzvpp scf=maxcycle=128 nosymm scrf=(smd,solvent=propyleth
 anoate) empiricaldispersion=gd3bj
 ----------------------------------------------------------------------
 1/38=1,172=1/1;
 2/12=2,15=1,17=6,18=5,40=1/2;
 3/5=44,7=202,11=2,25=1,30=1,70=32201,72=169,74=-5,124=41/1,2,3;
 4//1;
 5/5=2,7=128,38=5,53=169/2;
 6/7=2,8=2,9=2,10=2,28=1/1;
 99/5=1,9=1/99;
 Leave Link    1 at Wed Jun 12 15:29:59 2024, MaxMem=  8589934592 cpu:               0.9 elap:               0.0
 (Enter /opt/packages/gaussian/g16RevC.01/g16/l101.exe)
 -------------------
 Title Card Required
 -------------------
 Symbolic Z-matrix:
 Charge =  0 Multiplicity = 1
 C                     1.80374  -2.09842  -0.64523 
 C                     0.36901  -2.38912  -0.65234 
 C                    -0.25958  -2.45205   0.66617 
 C                     0.52204  -2.50579   1.78059 
 C                     1.94819  -2.50037   1.62948 
 N                     2.52637  -2.1933    0.43128 
 H                     0.05212  -2.57645   2.75817 
 C                     2.53379  -1.65191  -1.86974 
 C                     3.88102  -2.02786  -2.12966 
 C                     4.58381  -1.39868  -3.16314 
 C                     2.67261  -0.05665  -3.73787 
 C                     3.99569  -0.41223  -3.95355 
 H                     5.61078  -1.70787  -3.36327 
 H                     4.5678    0.06986  -4.74778 
 H                     2.16364   0.70816  -4.32524 
 C                     1.97208  -0.68329  -2.71493 
 C                     4.59623  -3.10478  -1.38575 
 C                     5.91501  -2.90305  -0.95662 
 C                     4.00442  -4.35648  -1.16512 
 C                     6.61357  -3.91485  -0.29509 
 H                     6.3946   -1.93886  -1.13196 
 C                     4.70101  -5.36698  -0.50802 
 H                     2.98916  -4.54139  -1.52 
 C                     6.00805  -5.1488   -0.0644 
 H                     7.63712  -3.73485   0.03906 
 H                     4.22104  -6.33438  -0.34798 
 H                     6.55215  -5.94103   0.45319 
 F                     0.70704  -0.30482  -2.55163 
 C                    -1.75343  -2.52031   0.76782 
 H                    -2.22983  -2.38179  -0.20946 
 H                    -2.06032  -3.48958   1.19233 
 H                    -2.10744  -1.72248   1.43811 
 C                     2.37899  -3.00222   4.01552 
 C                     4.23893  -2.82512   2.45499 
 C                     2.99379  -4.30438   4.51396 
 H                     1.29149  -3.04772   4.10725 
 H                     2.74751  -2.16224   4.62642 
 C                     4.75767  -4.13917   3.02507 
 H                     4.48081  -2.74268   1.39053 
 H                     4.68986  -1.98103   3.0028 
 H                     2.55424  -5.15173   3.95375 
 H                     2.76331  -4.43248   5.57962 
 H                     4.36457  -4.97861   2.42077 
 H                     5.85452  -4.15455   2.97213 
 N                     2.78525  -2.75998   2.63279 
 O                     4.39009  -4.29489   4.37309 
 I                     0.07667  -4.48719  -1.49085 
 H                    -0.21646  -1.83527  -1.389 
 C                    -4.29604   5.86781  -2.18468 
 C                    -4.02994   4.7274   -1.46493 
 C                    -2.69968   4.23516  -1.3458 
 C                    -1.65803   4.93479  -2.01904 
 C                    -1.96098   6.11911  -2.74793 
 C                    -3.25134   6.5795   -2.82548 
 H                    -5.32335   6.22587  -2.26829 
 H                    -4.84817   4.18679  -0.98902 
 C                    -2.38123   3.0474   -0.60635 
 C                    -0.33913   4.42736  -1.97591 
 H                    -1.1462    6.64468  -3.24976 
 H                    -3.47938   7.48561  -3.38902 
 C                    -0.03835   3.25715  -1.30449 
 C                    -1.08036   2.56684  -0.6016 
 H                     0.45641   4.96238  -2.49754 
 C                    -3.49177   2.32644   0.10933 
 C                    -3.88886   1.05326  -0.26065 
 C                    -4.08965   2.95146   1.25523 
 C                    -4.83925   0.31627   0.51971 
 C                    -5.11589   2.26114   1.96328 
 C                    -3.68442   4.23001   1.73277 
 C                    -5.45888   0.94209   1.5844 
 C                    -5.73898   2.88161   3.08242 
 C                    -4.29743   4.80142   2.82239 
 H                    -2.87405   4.75965   1.23221 
 H                    -6.19457   0.39227   2.1739 
 C                    -5.34434   4.128     3.49945 
 H                    -6.52866   2.33893   3.60588 
 H                    -3.97073   5.78178   3.17271 
 H                    -5.82394   4.59773   4.35963 
 S                    -0.82075   0.92585   0.08717 
 O                    -1.43597   0.92279   1.38345 
 O                     0.57017   0.58238   0.06796 
 S                    -2.97107   0.29708  -1.60111 
 O                    -2.91224   1.2705   -2.65133 
 O                    -3.56056  -0.95823  -1.96956 
 N                    -1.56609   0.00296  -0.95362 
 C                     1.32047   2.80096  -1.33393 
 C                     2.48397   2.45691  -1.35536 
 C                    -5.07741  -1.0821    0.31076 
 C                    -5.16868  -2.28668   0.19128 
 C                    -5.04408  -3.68548  -0.09638 
 C                    -5.64088  -4.69606   0.6798 
 C                    -4.22004  -4.05516  -1.17363 
 C                    -5.40463  -6.03827   0.39233 
 C                    -3.98293  -5.39735  -1.45061 
 H                    -3.75686  -3.26156  -1.76253 
 C                    -4.56879  -6.39156  -0.66679 
 H                    -5.86633  -6.80993   1.00854 
 H                    -3.32288  -5.66091  -2.28062 
 H                    -4.35662  -7.44252  -0.86435 
 C                     3.80209   1.91973  -1.19455 
 C                     3.98499   0.91761  -0.22787 
 C                     4.91104   2.3512   -1.94695 
 C                     5.2504    0.38548   0.00029 
 H                     3.11211   0.57061   0.32869 
 C                     6.17372   1.81279  -1.71645 
 C                     6.34683   0.83678  -0.73485 
 H                     5.37621  -0.39223   0.75614 
 H                     7.02375   2.15942  -2.30444 
 H                     7.34089   0.42561  -0.5518 
 C                     4.71039   3.37538  -3.03079 
 F                     5.85873   3.70445  -3.6275 
 F                     4.17218   4.50653  -2.5656 
 F                     3.88968   2.9259   -3.98923 
 C                    -6.51458  -4.31142   1.84327 
 F                    -7.03258  -5.37893   2.45546 
 F                    -7.53995  -3.54067   1.46619 
 F                    -5.83727  -3.62149   2.76797 
 N                    -0.42436  -6.70938  -2.5241 
 C                    -0.29921  -6.7924   -3.83135 
 C                    -1.23253  -7.80586  -4.4666 
 C                    -1.86568  -8.47416  -3.25154 
 C                    -1.35906  -7.64191  -2.07215 
 O                    -1.70069  -7.76458  -0.92384 
 O                     0.51201  -6.07573  -4.48692 
 H                    -1.96375  -7.26291  -5.08697 
 H                    -0.67026  -8.48062  -5.12824 
 H                    -1.53449  -9.51272  -3.11146 
 H                    -2.96366  -8.47236  -3.25696 
 C                    -1.16448  -5.15494  -7.03727 
 C                    -2.05528  -5.27534  -8.0839 
 C                    -1.90157  -6.35123  -8.9866 
 C                    -0.84687  -7.2307   -8.8143 
 C                     0.0453   -7.05643  -7.72533 
 N                    -0.17349  -6.05516  -6.85552 
 H                    -0.68669  -8.02614  -9.53942 
 C                    -1.22266  -4.03536  -6.05734 
 C                    -0.09271  -3.25204  -5.73033 
 C                    -0.23376  -2.21201  -4.80645 
 C                    -2.56471  -2.729    -4.47242 
 C                    -1.45004  -1.94658  -4.18353 
 H                     0.63291  -1.58871  -4.59613 
 H                    -1.52802  -1.12543  -3.47012 
 H                    -3.52836  -2.54951  -3.99436 
 C                    -2.42465  -3.75053  -5.40128 
 C                     1.25953  -3.49248  -6.30913 
 C                     2.3598   -3.57982  -5.4443 
 C                     1.47093  -3.6197   -7.68948 
 C                     3.64148  -3.80837  -5.9468 
 H                     2.20207  -3.4889   -4.366 
 C                     2.75166  -3.84254  -8.19084 
 H                     0.6238   -3.53865  -8.37494 
 C                     3.84057  -3.94297  -7.32071 
 H                     4.484    -3.88575  -5.2565 
 H                     2.90257  -3.93311  -9.26824 
 H                     4.84243  -4.12197  -7.71563 
 F                    -3.48929  -4.52481  -5.65966 
 C                    -2.85733  -6.49783  -10.13352 
 H                    -3.88286  -6.62434  -9.75603 
 H                    -2.85141  -5.58902  -10.75301 
 H                    -2.60495  -7.35849  -10.76499 
 C                     1.29782  -9.17713  -8.06936 
 C                     2.26976  -7.41038  -6.70143 
 C                     2.61236  -9.25849  -8.82977 
 H                     0.45541  -9.43932  -8.71717 
 H                     1.32411  -9.90553  -7.23962 
 C                     3.5467   -7.5867   -7.51576 
 H                     2.16572  -6.35096  -6.43383 
 H                     2.32919  -8.00171  -5.7715 
 H                     2.57079  -8.58956  -9.71143 
 H                     2.78755  -10.28582  -9.1761 
 H                     3.53095  -6.87314  -8.36251 
 H                     4.42097  -7.3648   -6.88865 
 N                     1.12752  -7.84679  -7.50158 
 O                     3.68692  -8.90158  -7.9957 
 H                    -2.85337  -4.54448  -8.21344 
 H                     0.2977   -6.07835  -5.64145 
 
 ITRead=  0  0  0  0  0  0  0  0  0  0  0  0  0  0  0  0  0  0  0  0
 ITRead=  0  0  0  0  0  0  0  0  0  0  0  0  0  0  0  0  0  0  0  0
 ITRead=  0  0  0  0  0  0  0  0  0  0  0  0  0  0  0  0  0  0  0  0
 ITRead=  0  0  0  0  0  0  0  0  0  0  0  0  0  0  0  0  0  0  0  0
 ITRead=  0  0  0  0  0  0  0  0  0  0  0  0  0  0  0  0  0  0  0  0
 ITRead=  0  0  0  0  0  0  0  0  0  0  0  0  0  0  0  0  0  0  0  0
 ITRead=  0  0  0  0  0  0  0  0  0  0  0  0  0  0  0  0  0  0  0  0
 ITRead=  0  0  0  0  0  0  0  0  0  0  0  0  0  0  0  0  0  0  0  0
 ITRead=  0  0  0  0  0  0  0  0  0  0  0  0  0  0  0  0
 MicOpt= -1 -1 -1 -1 -1 -1 -1 -1 -1 -1 -1 -1 -1 -1 -1 -1 -1 -1 -1 -1
 MicOpt= -1 -1 -1 -1 -1 -1 -1 -1 -1 -1 -1 -1 -1 -1 -1 -1 -1 -1 -1 -1
 MicOpt= -1 -1 -1 -1 -1 -1 -1 -1 -1 -1 -1 -1 -1 -1 -1 -1 -1 -1 -1 -1
 MicOpt= -1 -1 -1 -1 -1 -1 -1 -1 -1 -1 -1 -1 -1 -1 -1 -1 -1 -1 -1 -1
 MicOpt= -1 -1 -1 -1 -1 -1 -1 -1 -1 -1 -1 -1 -1 -1 -1 -1 -1 -1 -1 -1
 MicOpt= -1 -1 -1 -1 -1 -1 -1 -1 -1 -1 -1 -1 -1 -1 -1 -1 -1 -1 -1 -1
 MicOpt= -1 -1 -1 -1 -1 -1 -1 -1 -1 -1 -1 -1 -1 -1 -1 -1 -1 -1 -1 -1
 MicOpt= -1 -1 -1 -1 -1 -1 -1 -1 -1 -1 -1 -1 -1 -1 -1 -1 -1 -1 -1 -1
 MicOpt= -1 -1 -1 -1 -1 -1 -1 -1 -1 -1 -1 -1 -1 -1 -1 -1
 NAtoms=    176 NQM=      176 NQMF=       0 NMMI=      0 NMMIF=      0
                NMic=       0 NMicF=      0.
                    Isotopes and Nuclear Properties:
 (Nuclear quadrupole moments (NQMom) in fm**2, nuclear magnetic moments (NMagM)
  in nuclear magnetons)

  Atom         1           2           3           4           5           6           7           8           9          10
 IAtWgt=          12          12          12          12          12          14           1          12          12          12
 AtmWgt=  12.0000000  12.0000000  12.0000000  12.0000000  12.0000000  14.0030740   1.0078250  12.0000000  12.0000000  12.0000000
 NucSpn=           0           0           0           0           0           2           1           0           0           0
 AtZEff=   0.0000000   0.0000000   0.0000000   0.0000000   0.0000000   0.0000000   0.0000000   0.0000000   0.0000000   0.0000000
 NQMom=    0.0000000   0.0000000   0.0000000   0.0000000   0.0000000   2.0440000   0.0000000   0.0000000   0.0000000   0.0000000
 NMagM=    0.0000000   0.0000000   0.0000000   0.0000000   0.0000000   0.4037610   2.7928460   0.0000000   0.0000000   0.0000000
 AtZNuc=   6.0000000   6.0000000   6.0000000   6.0000000   6.0000000   7.0000000   1.0000000   6.0000000   6.0000000   6.0000000

  Atom        11          12          13          14          15          16          17          18          19          20
 IAtWgt=          12          12           1           1           1          12          12          12          12          12
 AtmWgt=  12.0000000  12.0000000   1.0078250   1.0078250   1.0078250  12.0000000  12.0000000  12.0000000  12.0000000  12.0000000
 NucSpn=           0           0           1           1           1           0           0           0           0           0
 AtZEff=   0.0000000   0.0000000   0.0000000   0.0000000   0.0000000   0.0000000   0.0000000   0.0000000   0.0000000   0.0000000
 NQMom=    0.0000000   0.0000000   0.0000000   0.0000000   0.0000000   0.0000000   0.0000000   0.0000000   0.0000000   0.0000000
 NMagM=    0.0000000   0.0000000   2.7928460   2.7928460   2.7928460   0.0000000   0.0000000   0.0000000   0.0000000   0.0000000
 AtZNuc=   6.0000000   6.0000000   1.0000000   1.0000000   1.0000000   6.0000000   6.0000000   6.0000000   6.0000000   6.0000000

  Atom        21          22          23          24          25          26          27          28          29          30
 IAtWgt=           1          12           1          12           1           1           1          19          12           1
 AtmWgt=   1.0078250  12.0000000   1.0078250  12.0000000   1.0078250   1.0078250   1.0078250  18.9984032  12.0000000   1.0078250
 NucSpn=           1           0           1           0           1           1           1           1           0           1
 AtZEff=   0.0000000   0.0000000   0.0000000   0.0000000   0.0000000   0.0000000   0.0000000   0.0000000   0.0000000   0.0000000
 NQMom=    0.0000000   0.0000000   0.0000000   0.0000000   0.0000000   0.0000000   0.0000000   0.0000000   0.0000000   0.0000000
 NMagM=    2.7928460   0.0000000   2.7928460   0.0000000   2.7928460   2.7928460   2.7928460   2.6288670   0.0000000   2.7928460
 AtZNuc=   1.0000000   6.0000000   1.0000000   6.0000000   1.0000000   1.0000000   1.0000000   9.0000000   6.0000000   1.0000000

  Atom        31          32          33          34          35          36          37          38          39          40
 IAtWgt=           1           1          12          12          12           1           1          12           1           1
 AtmWgt=   1.0078250   1.0078250  12.0000000  12.0000000  12.0000000   1.0078250   1.0078250  12.0000000   1.0078250   1.0078250
 NucSpn=           1           1           0           0           0           1           1           0           1           1
 AtZEff=   0.0000000   0.0000000   0.0000000   0.0000000   0.0000000   0.0000000   0.0000000   0.0000000   0.0000000   0.0000000
 NQMom=    0.0000000   0.0000000   0.0000000   0.0000000   0.0000000   0.0000000   0.0000000   0.0000000   0.0000000   0.0000000
 NMagM=    2.7928460   2.7928460   0.0000000   0.0000000   0.0000000   2.7928460   2.7928460   0.0000000   2.7928460   2.7928460
 AtZNuc=   1.0000000   1.0000000   6.0000000   6.0000000   6.0000000   1.0000000   1.0000000   6.0000000   1.0000000   1.0000000

  Atom        41          42          43          44          45          46          47          48          49          50
 IAtWgt=           1           1           1           1          14          16         127           1          12          12
 AtmWgt=   1.0078250   1.0078250   1.0078250   1.0078250  14.0030740  15.9949146 126.9004000   1.0078250  12.0000000  12.0000000
 NucSpn=           1           1           1           1           2           0           5           1           0           0
 AtZEff=   0.0000000   0.0000000   0.0000000   0.0000000   0.0000000   0.0000000   0.0000000   0.0000000   0.0000000   0.0000000
 NQMom=    0.0000000   0.0000000   0.0000000   0.0000000   2.0440000   0.0000000 -71.0000000   0.0000000   0.0000000   0.0000000
 NMagM=    2.7928460   2.7928460   2.7928460   2.7928460   0.4037610   0.0000000   2.8132800   2.7928460   0.0000000   0.0000000
 AtZNuc=   1.0000000   1.0000000   1.0000000   1.0000000   7.0000000   8.0000000  53.0000000   1.0000000   6.0000000   6.0000000

  Atom        51          52          53          54          55          56          57          58          59          60
 IAtWgt=          12          12          12          12           1           1          12          12           1           1
 AtmWgt=  12.0000000  12.0000000  12.0000000  12.0000000   1.0078250   1.0078250  12.0000000  12.0000000   1.0078250   1.0078250
 NucSpn=           0           0           0           0           1           1           0           0           1           1
 AtZEff=   0.0000000   0.0000000   0.0000000   0.0000000   0.0000000   0.0000000   0.0000000   0.0000000   0.0000000   0.0000000
 NQMom=    0.0000000   0.0000000   0.0000000   0.0000000   0.0000000   0.0000000   0.0000000   0.0000000   0.0000000   0.0000000
 NMagM=    0.0000000   0.0000000   0.0000000   0.0000000   2.7928460   2.7928460   0.0000000   0.0000000   2.7928460   2.7928460
 AtZNuc=   6.0000000   6.0000000   6.0000000   6.0000000   1.0000000   1.0000000   6.0000000   6.0000000   1.0000000   1.0000000

  Atom        61          62          63          64          65          66          67          68          69          70
 IAtWgt=          12          12           1          12          12          12          12          12          12          12
 AtmWgt=  12.0000000  12.0000000   1.0078250  12.0000000  12.0000000  12.0000000  12.0000000  12.0000000  12.0000000  12.0000000
 NucSpn=           0           0           1           0           0           0           0           0           0           0
 AtZEff=   0.0000000   0.0000000   0.0000000   0.0000000   0.0000000   0.0000000   0.0000000   0.0000000   0.0000000   0.0000000
 NQMom=    0.0000000   0.0000000   0.0000000   0.0000000   0.0000000   0.0000000   0.0000000   0.0000000   0.0000000   0.0000000
 NMagM=    0.0000000   0.0000000   2.7928460   0.0000000   0.0000000   0.0000000   0.0000000   0.0000000   0.0000000   0.0000000
 AtZNuc=   6.0000000   6.0000000   1.0000000   6.0000000   6.0000000   6.0000000   6.0000000   6.0000000   6.0000000   6.0000000

  Atom        71          72          73          74          75          76          77          78          79          80
 IAtWgt=          12          12           1           1          12           1           1           1          32          16
 AtmWgt=  12.0000000  12.0000000   1.0078250   1.0078250  12.0000000   1.0078250   1.0078250   1.0078250  31.9720718  15.9949146
 NucSpn=           0           0           1           1           0           1           1           1           0           0
 AtZEff=   0.0000000   0.0000000   0.0000000   0.0000000   0.0000000   0.0000000   0.0000000   0.0000000   0.0000000   0.0000000
 NQMom=    0.0000000   0.0000000   0.0000000   0.0000000   0.0000000   0.0000000   0.0000000   0.0000000   0.0000000   0.0000000
 NMagM=    0.0000000   0.0000000   2.7928460   2.7928460   0.0000000   2.7928460   2.7928460   2.7928460   0.0000000   0.0000000
 AtZNuc=   6.0000000   6.0000000   1.0000000   1.0000000   6.0000000   1.0000000   1.0000000   1.0000000  16.0000000   8.0000000

  Atom        81          82          83          84          85          86          87          88          89          90
 IAtWgt=          16          32          16          16          14          12          12          12          12          12
 AtmWgt=  15.9949146  31.9720718  15.9949146  15.9949146  14.0030740  12.0000000  12.0000000  12.0000000  12.0000000  12.0000000
 NucSpn=           0           0           0           0           2           0           0           0           0           0
 AtZEff=   0.0000000   0.0000000   0.0000000   0.0000000   0.0000000   0.0000000   0.0000000   0.0000000   0.0000000   0.0000000
 NQMom=    0.0000000   0.0000000   0.0000000   0.0000000   2.0440000   0.0000000   0.0000000   0.0000000   0.0000000   0.0000000
 NMagM=    0.0000000   0.0000000   0.0000000   0.0000000   0.4037610   0.0000000   0.0000000   0.0000000   0.0000000   0.0000000
 AtZNuc=   8.0000000  16.0000000   8.0000000   8.0000000   7.0000000   6.0000000   6.0000000   6.0000000   6.0000000   6.0000000

  Atom        91          92          93          94          95          96          97          98          99         100
 IAtWgt=          12          12          12          12           1          12           1           1           1          12
 AtmWgt=  12.0000000  12.0000000  12.0000000  12.0000000   1.0078250  12.0000000   1.0078250   1.0078250   1.0078250  12.0000000
 NucSpn=           0           0           0           0           1           0           1           1           1           0
 AtZEff=   0.0000000   0.0000000   0.0000000   0.0000000   0.0000000   0.0000000   0.0000000   0.0000000   0.0000000   0.0000000
 NQMom=    0.0000000   0.0000000   0.0000000   0.0000000   0.0000000   0.0000000   0.0000000   0.0000000   0.0000000   0.0000000
 NMagM=    0.0000000   0.0000000   0.0000000   0.0000000   2.7928460   0.0000000   2.7928460   2.7928460   2.7928460   0.0000000
 AtZNuc=   6.0000000   6.0000000   6.0000000   6.0000000   1.0000000   6.0000000   1.0000000   1.0000000   1.0000000   6.0000000

  Atom       101         102         103         104         105         106         107         108         109         110
 IAtWgt=          12          12          12           1          12          12           1           1           1          12
 AtmWgt=  12.0000000  12.0000000  12.0000000   1.0078250  12.0000000  12.0000000   1.0078250   1.0078250   1.0078250  12.0000000
 NucSpn=           0           0           0           1           0           0           1           1           1           0
 AtZEff=   0.0000000   0.0000000   0.0000000   0.0000000   0.0000000   0.0000000   0.0000000   0.0000000   0.0000000   0.0000000
 NQMom=    0.0000000   0.0000000   0.0000000   0.0000000   0.0000000   0.0000000   0.0000000   0.0000000   0.0000000   0.0000000
 NMagM=    0.0000000   0.0000000   0.0000000   2.7928460   0.0000000   0.0000000   2.7928460   2.7928460   2.7928460   0.0000000
 AtZNuc=   6.0000000   6.0000000   6.0000000   1.0000000   6.0000000   6.0000000   1.0000000   1.0000000   1.0000000   6.0000000

  Atom       111         112         113         114         115         116         117         118         119         120
 IAtWgt=          19          19          19          12          19          19          19          14          12          12
 AtmWgt=  18.9984032  18.9984032  18.9984032  12.0000000  18.9984032  18.9984032  18.9984032  14.0030740  12.0000000  12.0000000
 NucSpn=           1           1           1           0           1           1           1           2           0           0
 AtZEff=   0.0000000   0.0000000   0.0000000   0.0000000   0.0000000   0.0000000   0.0000000   0.0000000   0.0000000   0.0000000
 NQMom=    0.0000000   0.0000000   0.0000000   0.0000000   0.0000000   0.0000000   0.0000000   2.0440000   0.0000000   0.0000000
 NMagM=    2.6288670   2.6288670   2.6288670   0.0000000   2.6288670   2.6288670   2.6288670   0.4037610   0.0000000   0.0000000
 AtZNuc=   9.0000000   9.0000000   9.0000000   6.0000000   9.0000000   9.0000000   9.0000000   7.0000000   6.0000000   6.0000000

  Atom       121         122         123         124         125         126         127         128         129         130
 IAtWgt=          12          12          16          16           1           1           1           1          12          12
 AtmWgt=  12.0000000  12.0000000  15.9949146  15.9949146   1.0078250   1.0078250   1.0078250   1.0078250  12.0000000  12.0000000
 NucSpn=           0           0           0           0           1           1           1           1           0           0
 AtZEff=   0.0000000   0.0000000   0.0000000   0.0000000   0.0000000   0.0000000   0.0000000   0.0000000   0.0000000   0.0000000
 NQMom=    0.0000000   0.0000000   0.0000000   0.0000000   0.0000000   0.0000000   0.0000000   0.0000000   0.0000000   0.0000000
 NMagM=    0.0000000   0.0000000   0.0000000   0.0000000   2.7928460   2.7928460   2.7928460   2.7928460   0.0000000   0.0000000
 AtZNuc=   6.0000000   6.0000000   8.0000000   8.0000000   1.0000000   1.0000000   1.0000000   1.0000000   6.0000000   6.0000000

  Atom       131         132         133         134         135         136         137         138         139         140
 IAtWgt=          12          12          12          14           1          12          12          12          12          12
 AtmWgt=  12.0000000  12.0000000  12.0000000  14.0030740   1.0078250  12.0000000  12.0000000  12.0000000  12.0000000  12.0000000
 NucSpn=           0           0           0           2           1           0           0           0           0           0
 AtZEff=   0.0000000   0.0000000   0.0000000   0.0000000   0.0000000   0.0000000   0.0000000   0.0000000   0.0000000   0.0000000
 NQMom=    0.0000000   0.0000000   0.0000000   2.0440000   0.0000000   0.0000000   0.0000000   0.0000000   0.0000000   0.0000000
 NMagM=    0.0000000   0.0000000   0.0000000   0.4037610   2.7928460   0.0000000   0.0000000   0.0000000   0.0000000   0.0000000
 AtZNuc=   6.0000000   6.0000000   6.0000000   7.0000000   1.0000000   6.0000000   6.0000000   6.0000000   6.0000000   6.0000000

  Atom       141         142         143         144         145         146         147         148         149         150
 IAtWgt=           1           1           1          12          12          12          12          12           1          12
 AtmWgt=   1.0078250   1.0078250   1.0078250  12.0000000  12.0000000  12.0000000  12.0000000  12.0000000   1.0078250  12.0000000
 NucSpn=           1           1           1           0           0           0           0           0           1           0
 AtZEff=   0.0000000   0.0000000   0.0000000   0.0000000   0.0000000   0.0000000   0.0000000   0.0000000   0.0000000   0.0000000
 NQMom=    0.0000000   0.0000000   0.0000000   0.0000000   0.0000000   0.0000000   0.0000000   0.0000000   0.0000000   0.0000000
 NMagM=    2.7928460   2.7928460   2.7928460   0.0000000   0.0000000   0.0000000   0.0000000   0.0000000   2.7928460   0.0000000
 AtZNuc=   1.0000000   1.0000000   1.0000000   6.0000000   6.0000000   6.0000000   6.0000000   6.0000000   1.0000000   6.0000000

  Atom       151         152         153         154         155         156         157         158         159         160
 IAtWgt=           1          12           1           1           1          19          12           1           1           1
 AtmWgt=   1.0078250  12.0000000   1.0078250   1.0078250   1.0078250  18.9984032  12.0000000   1.0078250   1.0078250   1.0078250
 NucSpn=           1           0           1           1           1           1           0           1           1           1
 AtZEff=   0.0000000   0.0000000   0.0000000   0.0000000   0.0000000   0.0000000   0.0000000   0.0000000   0.0000000   0.0000000
 NQMom=    0.0000000   0.0000000   0.0000000   0.0000000   0.0000000   0.0000000   0.0000000   0.0000000   0.0000000   0.0000000
 NMagM=    2.7928460   0.0000000   2.7928460   2.7928460   2.7928460   2.6288670   0.0000000   2.7928460   2.7928460   2.7928460
 AtZNuc=   1.0000000   6.0000000   1.0000000   1.0000000   1.0000000   9.0000000   6.0000000   1.0000000   1.0000000   1.0000000

  Atom       161         162         163         164         165         166         167         168         169         170
 IAtWgt=          12          12          12           1           1          12           1           1           1           1
 AtmWgt=  12.0000000  12.0000000  12.0000000   1.0078250   1.0078250  12.0000000   1.0078250   1.0078250   1.0078250   1.0078250
 NucSpn=           0           0           0           1           1           0           1           1           1           1
 AtZEff=   0.0000000   0.0000000   0.0000000   0.0000000   0.0000000   0.0000000   0.0000000   0.0000000   0.0000000   0.0000000
 NQMom=    0.0000000   0.0000000   0.0000000   0.0000000   0.0000000   0.0000000   0.0000000   0.0000000   0.0000000   0.0000000
 NMagM=    0.0000000   0.0000000   0.0000000   2.7928460   2.7928460   0.0000000   2.7928460   2.7928460   2.7928460   2.7928460
 AtZNuc=   6.0000000   6.0000000   6.0000000   1.0000000   1.0000000   6.0000000   1.0000000   1.0000000   1.0000000   1.0000000

  Atom       171         172         173         174         175         176
 IAtWgt=           1           1          14          16           1           1
 AtmWgt=   1.0078250   1.0078250  14.0030740  15.9949146   1.0078250   1.0078250
 NucSpn=           1           1           2           0           1           1
 AtZEff=   0.0000000   0.0000000   0.0000000   0.0000000   0.0000000   0.0000000
 NQMom=    0.0000000   0.0000000   2.0440000   0.0000000   0.0000000   0.0000000
 NMagM=    2.7928460   2.7928460   0.4037610   0.0000000   2.7928460   2.7928460
 AtZNuc=   1.0000000   1.0000000   7.0000000   8.0000000   1.0000000   1.0000000
 Leave Link  101 at Wed Jun 12 15:29:59 2024, MaxMem=  8589934592 cpu:               2.7 elap:               0.1
 (Enter /opt/packages/gaussian/g16RevC.01/g16/l202.exe)
 Symmetry turned off by external request.
 Stoichiometry    C86H65F8IN6O8S2
 Framework group  C1[X(C86H65F8IN6O8S2)]
 Deg. of freedom   522
 Full point group                 C1      NOp   1
                          Input orientation:                          
 ---------------------------------------------------------------------
 Center     Atomic      Atomic             Coordinates (Angstroms)
 Number     Number       Type             X           Y           Z
 ---------------------------------------------------------------------
      1          6           0        1.803741   -2.098419   -0.645233
      2          6           0        0.369005   -2.389119   -0.652344
      3          6           0       -0.259582   -2.452050    0.666169
      4          6           0        0.522035   -2.505789    1.780588
      5          6           0        1.948191   -2.500373    1.629479
      6          7           0        2.526365   -2.193299    0.431282
      7          1           0        0.052119   -2.576453    2.758165
      8          6           0        2.533785   -1.651908   -1.869741
      9          6           0        3.881017   -2.027857   -2.129660
     10          6           0        4.583810   -1.398677   -3.163142
     11          6           0        2.672610   -0.056650   -3.737869
     12          6           0        3.995691   -0.412227   -3.953554
     13          1           0        5.610778   -1.707870   -3.363268
     14          1           0        4.567801    0.069861   -4.747780
     15          1           0        2.163636    0.708158   -4.325235
     16          6           0        1.972075   -0.683285   -2.714928
     17          6           0        4.596231   -3.104783   -1.385754
     18          6           0        5.915006   -2.903051   -0.956621
     19          6           0        4.004419   -4.356479   -1.165115
     20          6           0        6.613571   -3.914849   -0.295093
     21          1           0        6.394596   -1.938859   -1.131960
     22          6           0        4.701015   -5.366975   -0.508017
     23          1           0        2.989157   -4.541385   -1.520001
     24          6           0        6.008047   -5.148802   -0.064399
     25          1           0        7.637118   -3.734848    0.039055
     26          1           0        4.221040   -6.334376   -0.347979
     27          1           0        6.552145   -5.941033    0.453191
     28          9           0        0.707041   -0.304822   -2.551625
     29          6           0       -1.753430   -2.520307    0.767820
     30          1           0       -2.229833   -2.381786   -0.209460
     31          1           0       -2.060316   -3.489580    1.192332
     32          1           0       -2.107439   -1.722475    1.438113
     33          6           0        2.378989   -3.002216    4.015522
     34          6           0        4.238935   -2.825116    2.454986
     35          6           0        2.993793   -4.304383    4.513956
     36          1           0        1.291487   -3.047722    4.107246
     37          1           0        2.747511   -2.162237    4.626417
     38          6           0        4.757667   -4.139165    3.025070
     39          1           0        4.480813   -2.742675    1.390528
     40          1           0        4.689858   -1.981029    3.002798
     41          1           0        2.554240   -5.151731    3.953749
     42          1           0        2.763306   -4.432476    5.579616
     43          1           0        4.364573   -4.978605    2.420770
     44          1           0        5.854524   -4.154546    2.972129
     45          7           0        2.785247   -2.759982    2.632791
     46          8           0        4.390085   -4.294894    4.373092
     47         53           0        0.076665   -4.487188   -1.490846
     48          1           0       -0.216458   -1.835274   -1.388996
     49          6           0       -4.296036    5.867810   -2.184677
     50          6           0       -4.029941    4.727398   -1.464928
     51          6           0       -2.699680    4.235162   -1.345800
     52          6           0       -1.658032    4.934790   -2.019035
     53          6           0       -1.960979    6.119109   -2.747930
     54          6           0       -3.251343    6.579501   -2.825475
     55          1           0       -5.323352    6.225866   -2.268286
     56          1           0       -4.848173    4.186788   -0.989016
     57          6           0       -2.381225    3.047397   -0.606351
     58          6           0       -0.339126    4.427365   -1.975912
     59          1           0       -1.146199    6.644677   -3.249761
     60          1           0       -3.479383    7.485607   -3.389015
     61          6           0       -0.038345    3.257151   -1.304489
     62          6           0       -1.080363    2.566842   -0.601601
     63          1           0        0.456406    4.962379   -2.497536
     64          6           0       -3.491768    2.326441    0.109332
     65          6           0       -3.888860    1.053263   -0.260654
     66          6           0       -4.089649    2.951463    1.255230
     67          6           0       -4.839245    0.316273    0.519706
     68          6           0       -5.115886    2.261144    1.963284
     69          6           0       -3.684423    4.230006    1.732768
     70          6           0       -5.458878    0.942089    1.584397
     71          6           0       -5.738984    2.881610    3.082424
     72          6           0       -4.297426    4.801418    2.822389
     73          1           0       -2.874046    4.759645    1.232205
     74          1           0       -6.194571    0.392267    2.173903
     75          6           0       -5.344336    4.127997    3.499452
     76          1           0       -6.528658    2.338926    3.605877
     77          1           0       -3.970727    5.781784    3.172707
     78          1           0       -5.823942    4.597725    4.359634
     79         16           0       -0.820747    0.925846    0.087173
     80          8           0       -1.435966    0.922789    1.383454
     81          8           0        0.570172    0.582377    0.067962
     82         16           0       -2.971066    0.297077   -1.601105
     83          8           0       -2.912238    1.270499   -2.651326
     84          8           0       -3.560563   -0.958233   -1.969563
     85          7           0       -1.566093    0.002959   -0.953617
     86          6           0        1.320470    2.800956   -1.333931
     87          6           0        2.483965    2.456905   -1.355361
     88          6           0       -5.077408   -1.082102    0.310761
     89          6           0       -5.168682   -2.286682    0.191276
     90          6           0       -5.044078   -3.685484   -0.096379
     91          6           0       -5.640880   -4.696062    0.679801
     92          6           0       -4.220043   -4.055165   -1.173632
     93          6           0       -5.404633   -6.038268    0.392331
     94          6           0       -3.982930   -5.397351   -1.450612
     95          1           0       -3.756861   -3.261563   -1.762531
     96          6           0       -4.568789   -6.391560   -0.666791
     97          1           0       -5.866328   -6.809926    1.008540
     98          1           0       -3.322879   -5.660913   -2.280616
     99          1           0       -4.356616   -7.442523   -0.864351
    100          6           0        3.802093    1.919732   -1.194550
    101          6           0        3.984994    0.917609   -0.227866
    102          6           0        4.911039    2.351199   -1.946948
    103          6           0        5.250403    0.385478    0.000289
    104          1           0        3.112114    0.570610    0.328691
    105          6           0        6.173721    1.812785   -1.716450
    106          6           0        6.346830    0.836779   -0.734848
    107          1           0        5.376207   -0.392234    0.756140
    108          1           0        7.023750    2.159416   -2.304442
    109          1           0        7.340889    0.425608   -0.551797
    110          6           0        4.710386    3.375375   -3.030786
    111          9           0        5.858730    3.704451   -3.627499
    112          9           0        4.172176    4.506529   -2.565597
    113          9           0        3.889680    2.925897   -3.989232
    114          6           0       -6.514577   -4.311417    1.843268
    115          9           0       -7.032579   -5.378930    2.455461
    116          9           0       -7.539951   -3.540671    1.466193
    117          9           0       -5.837270   -3.621492    2.767969
    118          7           0       -0.424359   -6.709380   -2.524103
    119          6           0       -0.299214   -6.792403   -3.831348
    120          6           0       -1.232530   -7.805862   -4.466601
    121          6           0       -1.865679   -8.474158   -3.251537
    122          6           0       -1.359058   -7.641910   -2.072154
    123          8           0       -1.700687   -7.764580   -0.923838
    124          8           0        0.512008   -6.075731   -4.486924
    125          1           0       -1.963748   -7.262910   -5.086971
    126          1           0       -0.670256   -8.480615   -5.128244
    127          1           0       -1.534487   -9.512720   -3.111458
    128          1           0       -2.963656   -8.472362   -3.256961
    129          6           0       -1.164479   -5.154936   -7.037272
    130          6           0       -2.055276   -5.275335   -8.083905
    131          6           0       -1.901571   -6.351227   -8.986597
    132          6           0       -0.846874   -7.230703   -8.814304
    133          6           0        0.045303   -7.056434   -7.725326
    134          7           0       -0.173491   -6.055158   -6.855521
    135          1           0       -0.686690   -8.026143   -9.539419
    136          6           0       -1.222660   -4.035360   -6.057342
    137          6           0       -0.092706   -3.252035   -5.730326
    138          6           0       -0.233757   -2.212011   -4.806454
    139          6           0       -2.564714   -2.729001   -4.472418
    140          6           0       -1.450044   -1.946584   -4.183527
    141          1           0        0.632913   -1.588710   -4.596129
    142          1           0       -1.528020   -1.125434   -3.470123
    143          1           0       -3.528355   -2.549506   -3.994360
    144          6           0       -2.424646   -3.750530   -5.401276
    145          6           0        1.259528   -3.492479   -6.309131
    146          6           0        2.359801   -3.579819   -5.444297
    147          6           0        1.470933   -3.619701   -7.689478
    148          6           0        3.641480   -3.808366   -5.946798
    149          1           0        2.202070   -3.488904   -4.366003
    150          6           0        2.751655   -3.842537   -8.190839
    151          1           0        0.623799   -3.538653   -8.374937
    152          6           0        3.840574   -3.942966   -7.320710
    153          1           0        4.484002   -3.885751   -5.256500
    154          1           0        2.902569   -3.933110   -9.268239
    155          1           0        4.842434   -4.121972   -7.715634
    156          9           0       -3.489291   -4.524807   -5.659655
    157          6           0       -2.857333   -6.497829  -10.133522
    158          1           0       -3.882862   -6.624344   -9.756030
    159          1           0       -2.851406   -5.589018  -10.753006
    160          1           0       -2.604945   -7.358493  -10.764986
    161          6           0        1.297822   -9.177133   -8.069362
    162          6           0        2.269761   -7.410381   -6.701428
    163          6           0        2.612360   -9.258492   -8.829768
    164          1           0        0.455413   -9.439318   -8.717167
    165          1           0        1.324108   -9.905532   -7.239615
    166          6           0        3.546696   -7.586696   -7.515764
    167          1           0        2.165719   -6.350960   -6.433826
    168          1           0        2.329191   -8.001712   -5.771504
    169          1           0        2.570791   -8.589564   -9.711429
    170          1           0        2.787549  -10.285816   -9.176102
    171          1           0        3.530952   -6.873144   -8.362510
    172          1           0        4.420972   -7.364803   -6.888654
    173          7           0        1.127521   -7.846794   -7.501581
    174          8           0        3.686919   -8.901582   -7.995697
    175          1           0       -2.853373   -4.544482   -8.213435
    176          1           0        0.297696   -6.078347   -5.641453
 ---------------------------------------------------------------------
 Rotational constants (GHZ):           0.0157559           0.0118757           0.0100042
 Leave Link  202 at Wed Jun 12 15:29:59 2024, MaxMem=  8589934592 cpu:               0.4 elap:               0.0
 (Enter /opt/packages/gaussian/g16RevC.01/g16/l301.exe)
 Standard basis: def2TZVPP (5D, 7F)
 Ernie: Thresh=  0.10000D-02 Tol=  0.10000D-05 Strict=F.
  4392 basis functions,  6860 primitive gaussians,  5018 cartesian basis functions
   408 alpha electrons      408 beta electrons
       nuclear repulsion energy     26993.0259399371 Hartrees.
 IExCor=  402 DFT=T Ex+Corr=B3LYP ExCW=0 ScaHFX=  0.200000
 ScaDFX=  0.800000  0.720000  1.000000  0.810000 ScalE2=  1.000000  1.000000
 IRadAn=      5 IRanWt=     -1 IRanGd=            0 ICorTp=0 IEmpDi=141
 NAtoms=  176 NActive=  176 NUniq=  176 SFac= 1.00D+00 NAtFMM=   60 NAOKFM=T Big=T
 Integral buffers will be    131072 words long.
 Raffenetti 2 integral format.
 Two-electron integral symmetry is turned off.
 R6Disp:  Grimme-D3(BJ) Dispersion energy=       -0.5761419891 Hartrees.
 Nuclear repulsion after empirical dispersion term =    26992.4497979479 Hartrees.
 ------------------------------------------------------------------------------
 Polarizable Continuum Model (PCM)
 =================================
 Model                : PCM.
 Atomic radii         : SMD-Coulomb.
 Polarization charges : Total charges.
 Charge compensation  : None.
 Solution method      : On-the-fly selection.
 Cavity type          : VdW (van der Waals Surface) (Alpha=1.000).
 Cavity algorithm     : GePol (No added spheres)
                        Default sphere list used, NSphG=  176.
                        Lebedev-Laikov grids with approx.  5.0 points / Ang**2.
                        Smoothing algorithm: York/Karplus (Gamma=1.0000).
                        Polarization charges: spherical gaussians, with
                                              point-specific exponents (IZeta= 3).
                        Self-potential: point-specific (ISelfS= 7).
                        Self-field    : sphere-specific E.n sum rule (ISelfD= 2).
 Solvent              : PropylEthanoate, Eps=   5.520500 Eps(inf)=   1.916010
 ------------------------------------------------------------------------------
 GePol: Number of generator spheres                  =     176
 GePol: Total number of spheres                      =     176
 GePol: Number of exposed spheres                    =     175 ( 99.43%)
 GePol: Number of points                             =   12153
 GePol: Average weight of points                     =       0.11
 GePol: Minimum weight of points                     =   0.11D-11
 GePol: Maximum weight of points                     =    0.21501
 GePol: Number of points with low weight             =     749
 GePol: Fraction of low-weight points (<1% of avg)   =       6.16%
 GePol: Cavity surface area                          =   1345.342 Ang**2
 GePol: Cavity volume                                =   1552.934 Ang**3
 ------------------------------------------------------------------------------
 Atomic radii for non-electrostatic terms: SMD-CDS.
 ------------------------------------------------------------------------------
 PCM non-electrostatic energy =        -0.0328535711 Hartrees.
 Nuclear repulsion after PCM non-electrostatic terms =    26992.4169443768 Hartrees.
 Leave Link  301 at Wed Jun 12 15:30:00 2024, MaxMem=  8589934592 cpu:               6.4 elap:               0.2
 (Enter /opt/packages/gaussian/g16RevC.01/g16/l302.exe)
 NPDir=0 NMtPBC=     1 NCelOv=     1 NCel=       1 NClECP=     1 NCelD=      1
         NCelK=      1 NCelE2=     1 NClLst=     1 CellRange=     0.0.
 One-electron integrals computed using PRISM.
   1 Symmetry operations used in ECPInt.
 ECPInt:  NShTT= 1316253 NPrTT= 3826671 LenC2=  716736 LenP2D= 1302521.
 LDataN:  DoStor=T MaxTD1= 7 Len=  274
 Number of processors reduced to  11 by ecpmxn.
 NBasis=  4392 RedAO= T EigKep=  1.99D-06  NBF=  4392
 NBsUse=  4392 1.00D-06 EigRej= -1.00D+00 NBFU=  4392
 Precomputing XC quadrature grid using
 IXCGrd= 4 IRadAn=           5 IRanWt=          -1 IRanGd=           0 AccXCQ= 0.00D+00.
 Defaulting to unpruned grid for atomic number  53.
 Generated NRdTot=       0 NPtTot=           0 NUsed=           0 NTot=          32
 NSgBfM=  3523  3446  3471  3501  3523 MxSgAt=   176 MxSgA2=   176.
 Leave Link  302 at Wed Jun 12 15:30:56 2024, MaxMem=  8589934592 cpu:            1684.8 elap:              56.4
 (Enter /opt/packages/gaussian/g16RevC.01/g16/l303.exe)
 DipDrv:  MaxL=1.
 Leave Link  303 at Wed Jun 12 15:30:59 2024, MaxMem=  8589934592 cpu:              58.0 elap:               2.3
 (Enter /opt/packages/gaussian/g16RevC.01/g16/l401.exe)
 ExpMin= 7.49D-02 ExpMax= 6.07D+04 ExpMxC= 2.07D+03 IAcc=3 IRadAn=         5 AccDes= 0.00D+00
 Harris functional with IExCor=  402 and IRadAn=       5 diagonalized for initial guess.
 HarFok:  IExCor=  402 AccDes= 0.00D+00 IRadAn=         5 IDoV= 1 UseB2=F ITyADJ=14
 ICtDFT=  3500011 ScaDFX=  1.000000  1.000000  1.000000  1.000000
 Defaulting to unpruned grid for atomic number  53.
 FoFCou: FMM=F IPFlag=           0 FMFlag=      100000 FMFlg1=        2001
         NFxFlg=           0 DoJE=T BraDBF=F KetDBF=T FulRan=T
         wScrn=  0.000000 ICntrl=       500 IOpCl=  0 I1Cent=   200000004 NGrid=           0
         NMat0=    1 NMatS0=      1 NMatT0=    0 NMatD0=    1 NMtDS0=    0 NMtDT0=    0
 Symmetry not used in FoFCou.
 Harris En= -6142.01285362205    
 JPrj=0 DoOrth=F DoCkMO=F.
 Leave Link  401 at Wed Jun 12 15:31:49 2024, MaxMem=  8589934592 cpu:            1593.9 elap:              50.1
 (Enter /opt/packages/gaussian/g16RevC.01/g16/l502.exe)
 Two-electron integral symmetry not used.
 Closed shell SCF:
 Using DIIS extrapolation, IDIIS=  1040.
 NGot=  8589934592 LenX=  8539378608 LenY=  8514193266
 Requested convergence on RMS density matrix=1.00D-08 within 128 cycles.
 Requested convergence on MAX density matrix=1.00D-06.
 Requested convergence on             energy=1.00D-06.
 No special actions if energy rises.
 Fock matrices will be formed incrementally for  20 cycles.

 Cycle   1  Pass 1  IDiag  1:
 FoFJK:  IHMeth= 1 ICntrl=       0 DoSepK=F KAlg= 0 I1Cent=           0 FoldK=F
 IRaf= 480000000 NMat=       1 IRICut=       1 DoRegI=T DoRafI=F ISym2E= 0 IDoP0=0 IntGTp=1.
 FoFCou: FMM=T IPFlag=           0 FMFlag=      100000 FMFlg1=        2001
         NFxFlg=           0 DoJE=F BraDBF=F KetDBF=F FulRan=T
         wScrn=  0.000000 ICntrl=         0 IOpCl=  0 I1Cent=           0 NGrid=           0
         NMat0=    1 NMatS0=      1 NMatT0=    0 NMatD0=    1 NMtDS0=    0 NMtDT0=    0
 Symmetry not used in FoFCou.
 FMM levels:  10  Number of levels for PrismC:   9
 Defaulting to unpruned grid for atomic number  53.
 Defaulting to unpruned grid for atomic number  53.
 Defaulting to unpruned grid for atomic number  53.
 Defaulting to unpruned grid for atomic number  53.
 Defaulting to unpruned grid for atomic number  53.
 Defaulting to unpruned grid for atomic number  53.
 Defaulting to unpruned grid for atomic number  53.
 Defaulting to unpruned grid for atomic number  53.
 Defaulting to unpruned grid for atomic number  53.
 Defaulting to unpruned grid for atomic number  53.
 Defaulting to unpruned grid for atomic number  53.
 Defaulting to unpruned grid for atomic number  53.
 Defaulting to unpruned grid for atomic number  53.
 Defaulting to unpruned grid for atomic number  53.
 Defaulting to unpruned grid for atomic number  53.
 Defaulting to unpruned grid for atomic number  53.
 Defaulting to unpruned grid for atomic number  53.
 Defaulting to unpruned grid for atomic number  53.
 Defaulting to unpruned grid for atomic number  53.
 Defaulting to unpruned grid for atomic number  53.
 Defaulting to unpruned grid for atomic number  53.
 Defaulting to unpruned grid for atomic number  53.
 Defaulting to unpruned grid for atomic number  53.
 Defaulting to unpruned grid for atomic number  53.
 Defaulting to unpruned grid for atomic number  53.
 Defaulting to unpruned grid for atomic number  53.
 Defaulting to unpruned grid for atomic number  53.
 Defaulting to unpruned grid for atomic number  53.
 Defaulting to unpruned grid for atomic number  53.
 Defaulting to unpruned grid for atomic number  53.
 Defaulting to unpruned grid for atomic number  53.
 Defaulting to unpruned grid for atomic number  53.
 Inv3:  Mode=1 IEnd=   443086227.
 Iteration    1 A*A^-1 deviation from unit magnitude is 4.11D-15 for   5110.
 Iteration    1 A*A^-1 deviation from orthogonality  is 2.66D-15 for   7436   6450.
 Iteration    1 A^-1*A deviation from unit magnitude is 4.33D-15 for   5110.
 Iteration    1 A^-1*A deviation from orthogonality  is 2.09D-14 for   8898   8871.
 E= -6139.33779390875    
 DIIS: error= 1.33D-02 at cycle   1 NSaved=   1.
 NSaved= 1 IEnMin= 1 EnMin= -6139.33779390875     IErMin= 1 ErrMin= 1.33D-02
 ErrMax= 1.33D-02  0.00D+00 EMaxC= 1.00D-01 BMatC= 3.29D+00 BMatP= 3.29D+00
 IDIUse=3 WtCom= 8.67D-01 WtEn= 1.33D-01
 Coeff-Com:  0.100D+01
 Coeff-En:   0.100D+01
 Coeff:      0.100D+01
 Gap=     0.319 Goal=   None    Shift=    0.000
 GapD=    0.319 DampG=1.000 DampE=0.500 DampFc=0.5000 IDamp=-1.
 Damping current iteration by 5.00D-01
 RMSDP=2.40D-03 MaxDP=1.30D+00              OVMax= 2.27D-01

 Cycle   2  Pass 1  IDiag  1:
 RMSU=  1.19D-03    CP:  1.06D+00
 E= -6140.21611414022     Delta-E=       -0.878320231473 Rises=F Damp=T
 DIIS: error= 3.60D-03 at cycle   2 NSaved=   2.
 NSaved= 2 IEnMin= 2 EnMin= -6140.21611414022     IErMin= 2 ErrMin= 3.60D-03
 ErrMax= 3.60D-03  0.00D+00 EMaxC= 1.00D-01 BMatC= 4.17D-01 BMatP= 3.29D+00
 IDIUse=3 WtCom= 9.64D-01 WtEn= 3.60D-02
 Coeff-Com:  0.159D+00 0.841D+00
 Coeff-En:   0.278D+00 0.722D+00
 Coeff:      0.163D+00 0.837D+00
 Gap=     0.188 Goal=   None    Shift=    0.000
 RMSDP=9.06D-04 MaxDP=4.53D-01 DE=-8.78D-01 OVMax= 2.48D-01

 Cycle   3  Pass 1  IDiag  1:
 RMSU=  6.44D-04    CP:  1.01D+00  4.75D-01
 E= -6141.57681888851     Delta-E=       -1.360704748284 Rises=F Damp=F
 DIIS: error= 4.57D-03 at cycle   3 NSaved=   3.
 NSaved= 3 IEnMin= 3 EnMin= -6141.57681888851     IErMin= 2 ErrMin= 3.60D-03
 ErrMax= 4.57D-03  0.00D+00 EMaxC= 1.00D-01 BMatC= 5.00D-01 BMatP= 4.17D-01
 IDIUse=3 WtCom= 1.29D-01 WtEn= 8.71D-01
 Coeff-Com:  0.841D-02 0.524D+00 0.467D+00
 Coeff-En:   0.000D+00 0.000D+00 0.100D+01
 Coeff:      0.108D-02 0.675D-01 0.931D+00
 Gap=     0.228 Goal=   None    Shift=    0.000
 RMSDP=1.24D-03 MaxDP=9.33D-01 DE=-1.36D+00 OVMax= 2.41D-01

 Cycle   4  Pass 1  IDiag  1:
 RMSU=  7.74D-04    CP:  1.02D+00  8.61D-01 -3.20D-01
 E= -6139.97174787913     Delta-E=        1.605071009380 Rises=F Damp=F
 DIIS: error= 1.13D-02 at cycle   4 NSaved=   4.
 NSaved= 4 IEnMin= 3 EnMin= -6141.57681888851     IErMin= 2 ErrMin= 3.60D-03
 ErrMax= 1.13D-02  0.00D+00 EMaxC= 1.00D-01 BMatC= 2.53D+00 BMatP= 4.17D-01
 IDIUse=2 WtCom= 0.00D+00 WtEn= 1.00D+00
 Coeff-En:   0.000D+00 0.000D+00 0.767D+00 0.233D+00
 Coeff:      0.000D+00 0.000D+00 0.767D+00 0.233D+00
 Gap=     0.167 Goal=   None    Shift=    0.000
 RMSDP=7.75D-04 MaxDP=8.05D-01 DE= 1.61D+00 OVMax= 1.60D-01

 Cycle   5  Pass 1  IDiag  1:
 RMSU=  2.25D-04    CP:  1.00D+00  5.63D-01  3.17D-01  3.51D-01
 E= -6141.88503746532     Delta-E=       -1.913289586195 Rises=F Damp=F
 DIIS: error= 2.37D-03 at cycle   5 NSaved=   5.
 NSaved= 5 IEnMin= 5 EnMin= -6141.88503746532     IErMin= 5 ErrMin= 2.37D-03
 ErrMax= 2.37D-03  0.00D+00 EMaxC= 1.00D-01 BMatC= 1.47D-01 BMatP= 4.17D-01
 IDIUse=3 WtCom= 9.76D-01 WtEn= 2.37D-02
 Coeff-Com:  0.616D-02 0.165D-02 0.325D+00-0.199D-01 0.687D+00
 Coeff-En:   0.000D+00 0.000D+00 0.271D+00 0.000D+00 0.729D+00
 Coeff:      0.601D-02 0.161D-02 0.324D+00-0.195D-01 0.688D+00
 Gap=     0.116 Goal=   None    Shift=    0.000
 RMSDP=1.81D-04 MaxDP=9.41D-02 DE=-1.91D+00 OVMax= 4.45D-02

 Cycle   6  Pass 1  IDiag  1:
 RMSU=  6.15D-05    CP:  1.00D+00  5.17D-01  5.15D-01  2.33D-01  8.31D-01
 E= -6142.00123828248     Delta-E=       -0.116200817160 Rises=F Damp=F
 DIIS: error= 6.52D-04 at cycle   6 NSaved=   6.
 NSaved= 6 IEnMin= 6 EnMin= -6142.00123828248     IErMin= 6 ErrMin= 6.52D-04
 ErrMax= 6.52D-04  0.00D+00 EMaxC= 1.00D-01 BMatC= 6.48D-03 BMatP= 1.47D-01
 IDIUse=3 WtCom= 9.93D-01 WtEn= 6.52D-03
 Coeff-Com:  0.264D-03-0.153D-02 0.157D+00-0.487D-01 0.483D+00 0.410D+00
 Coeff-En:   0.000D+00 0.000D+00 0.000D+00 0.000D+00 0.000D+00 0.100D+01
 Coeff:      0.262D-03-0.152D-02 0.156D+00-0.484D-01 0.480D+00 0.414D+00
 Gap=     0.115 Goal=   None    Shift=    0.000
 RMSDP=3.88D-05 MaxDP=1.94D-02 DE=-1.16D-01 OVMax= 1.27D-02

 Cycle   7  Pass 1  IDiag  1:
 RMSU=  1.99D-05    CP:  1.00D+00  5.19D-01  5.34D-01  2.13D-01  8.59D-01
                    CP:  5.75D-01
 E= -6142.00717051094     Delta-E=       -0.005932228461 Rises=F Damp=F
 DIIS: error= 1.58D-04 at cycle   7 NSaved=   7.
 NSaved= 7 IEnMin= 7 EnMin= -6142.00717051094     IErMin= 7 ErrMin= 1.58D-04
 ErrMax= 1.58D-04  0.00D+00 EMaxC= 1.00D-01 BMatC= 2.95D-04 BMatP= 6.48D-03
 IDIUse=3 WtCom= 9.98D-01 WtEn= 1.58D-03
 Coeff-Com: -0.297D-03 0.136D-02 0.728D-01-0.296D-01 0.240D+00 0.242D+00
 Coeff-Com:  0.474D+00
 Coeff-En:   0.000D+00 0.000D+00 0.000D+00 0.000D+00 0.000D+00 0.000D+00
 Coeff-En:   0.100D+01
 Coeff:     -0.296D-03 0.136D-02 0.727D-01-0.295D-01 0.240D+00 0.241D+00
 Coeff:      0.475D+00
 Gap=     0.115 Goal=   None    Shift=    0.000
 RMSDP=7.16D-06 MaxDP=2.60D-03 DE=-5.93D-03 OVMax= 2.57D-03

 Cycle   8  Pass 1  IDiag  1:
 RMSU=  5.88D-06    CP:  1.00D+00  5.18D-01  5.33D-01  2.14D-01  8.60D-01
                    CP:  5.66D-01  8.10D-01
 E= -6142.00739236705     Delta-E=       -0.000221856109 Rises=F Damp=F
 DIIS: error= 3.73D-05 at cycle   8 NSaved=   8.
 NSaved= 8 IEnMin= 8 EnMin= -6142.00739236705     IErMin= 8 ErrMin= 3.73D-05
 ErrMax= 3.73D-05  0.00D+00 EMaxC= 1.00D-01 BMatC= 2.97D-05 BMatP= 2.95D-04
 IDIUse=1 WtCom= 1.00D+00 WtEn= 0.00D+00
 Coeff-Com: -0.278D-04 0.355D-03 0.195D-01-0.929D-02 0.636D-01 0.713D-01
 Coeff-Com:  0.261D+00 0.594D+00
 Coeff:     -0.278D-04 0.355D-03 0.195D-01-0.929D-02 0.636D-01 0.713D-01
 Coeff:      0.261D+00 0.594D+00
 Gap=     0.115 Goal=   None    Shift=    0.000
 RMSDP=2.96D-06 MaxDP=8.74D-04 DE=-2.22D-04 OVMax= 1.05D-03

 Cycle   9  Pass 1  IDiag  1:
 RMSU=  2.16D-06    CP:  1.00D+00  5.18D-01  5.35D-01  2.12D-01  8.60D-01
                    CP:  5.60D-01  8.17D-01  8.69D-01
 E= -6142.00741577245     Delta-E=       -0.000023405399 Rises=F Damp=F
 DIIS: error= 1.73D-05 at cycle   9 NSaved=   9.
 NSaved= 9 IEnMin= 9 EnMin= -6142.00741577245     IErMin= 9 ErrMin= 1.73D-05
 ErrMax= 1.73D-05  0.00D+00 EMaxC= 1.00D-01 BMatC= 5.19D-06 BMatP= 2.97D-05
 IDIUse=1 WtCom= 1.00D+00 WtEn= 0.00D+00
 Coeff-Com:  0.629D-04-0.182D-03 0.285D-02-0.159D-02 0.729D-02 0.115D-01
 Coeff-Com:  0.945D-01 0.368D+00 0.518D+00
 Coeff:      0.629D-04-0.182D-03 0.285D-02-0.159D-02 0.729D-02 0.115D-01
 Coeff:      0.945D-01 0.368D+00 0.518D+00
 Gap=     0.115 Goal=   None    Shift=    0.000
 RMSDP=1.13D-06 MaxDP=4.23D-04 DE=-2.34D-05 OVMax= 4.36D-04

 Cycle  10  Pass 1  IDiag  1:
 RMSU=  9.14D-07    CP:  1.00D+00  5.18D-01  5.35D-01  2.12D-01  8.59D-01
                    CP:  5.60D-01  8.25D-01  8.51D-01  7.35D-01
 E= -6142.00742002723     Delta-E=       -0.000004254776 Rises=F Damp=F
 DIIS: error= 6.41D-06 at cycle  10 NSaved=  10.
 NSaved=10 IEnMin=10 EnMin= -6142.00742002723     IErMin=10 ErrMin= 6.41D-06
 ErrMax= 6.41D-06  0.00D+00 EMaxC= 1.00D-01 BMatC= 5.81D-07 BMatP= 5.19D-06
 IDIUse=1 WtCom= 1.00D+00 WtEn= 0.00D+00
 Coeff-Com:  0.363D-04-0.178D-03-0.489D-04-0.956D-04-0.133D-02 0.473D-03
 Coeff-Com:  0.311D-01 0.161D+00 0.318D+00 0.490D+00
 Coeff:      0.363D-04-0.178D-03-0.489D-04-0.956D-04-0.133D-02 0.473D-03
 Coeff:      0.311D-01 0.161D+00 0.318D+00 0.490D+00
 Gap=     0.115 Goal=   None    Shift=    0.000
 RMSDP=4.60D-07 MaxDP=2.21D-04 DE=-4.25D-06 OVMax= 1.38D-04

 Cycle  11  Pass 1  IDiag  1:
 RMSU=  2.55D-07    CP:  1.00D+00  5.18D-01  5.35D-01  2.12D-01  8.59D-01
                    CP:  5.63D-01  8.27D-01  8.73D-01  7.58D-01  7.03D-01
 E= -6142.00742048246     Delta-E=       -0.000000455235 Rises=F Damp=F
 DIIS: error= 1.60D-06 at cycle  11 NSaved=  11.
 NSaved=11 IEnMin=11 EnMin= -6142.00742048246     IErMin=11 ErrMin= 1.60D-06
 ErrMax= 1.60D-06  0.00D+00 EMaxC= 1.00D-01 BMatC= 7.69D-08 BMatP= 5.81D-07
 IDIUse=1 WtCom= 1.00D+00 WtEn= 0.00D+00
 Coeff-Com:  0.110D-04-0.750D-04-0.372D-03 0.101D-03-0.163D-02-0.803D-03
 Coeff-Com:  0.950D-02 0.622D-01 0.145D+00 0.311D+00 0.475D+00
 Coeff:      0.110D-04-0.750D-04-0.372D-03 0.101D-03-0.163D-02-0.803D-03
 Coeff:      0.950D-02 0.622D-01 0.145D+00 0.311D+00 0.475D+00
 Gap=     0.115 Goal=   None    Shift=    0.000
 RMSDP=1.65D-07 MaxDP=6.10D-05 DE=-4.55D-07 OVMax= 6.19D-05

 Cycle  12  Pass 1  IDiag  1:
 RMSU=  1.13D-07    CP:  1.00D+00  5.18D-01  5.35D-01  2.12D-01  8.59D-01
                    CP:  5.62D-01  8.31D-01  8.75D-01  7.51D-01  7.42D-01
                    CP:  7.47D-01
 E= -6142.00742054889     Delta-E=       -0.000000066426 Rises=F Damp=F
 DIIS: error= 7.88D-07 at cycle  12 NSaved=  12.
 NSaved=12 IEnMin=12 EnMin= -6142.00742054889     IErMin=12 ErrMin= 7.88D-07
 ErrMax= 7.88D-07  0.00D+00 EMaxC= 1.00D-01 BMatC= 8.12D-09 BMatP= 7.69D-08
 IDIUse=1 WtCom= 1.00D+00 WtEn= 0.00D+00
 Coeff-Com: -0.139D-05-0.847D-05-0.269D-03 0.852D-04-0.906D-03-0.572D-03
 Coeff-Com:  0.118D-02 0.144D-01 0.410D-01 0.110D+00 0.270D+00 0.565D+00
 Coeff:     -0.139D-05-0.847D-05-0.269D-03 0.852D-04-0.906D-03-0.572D-03
 Coeff:      0.118D-02 0.144D-01 0.410D-01 0.110D+00 0.270D+00 0.565D+00
 Gap=     0.115 Goal=   None    Shift=    0.000
 RMSDP=6.46D-08 MaxDP=3.10D-05 DE=-6.64D-08 OVMax= 2.44D-05

 Cycle  13  Pass 1  IDiag  1:
 RMSU=  3.73D-08    CP:  1.00D+00  5.18D-01  5.35D-01  2.12D-01  8.59D-01
                    CP:  5.62D-01  8.30D-01  8.76D-01  7.52D-01  7.43D-01
                    CP:  8.08D-01  7.89D-01
 E= -6142.00742055667     Delta-E=       -0.000000007778 Rises=F Damp=F
 DIIS: error= 2.60D-07 at cycle  13 NSaved=  13.
 NSaved=13 IEnMin=13 EnMin= -6142.00742055667     IErMin=13 ErrMin= 2.60D-07
 ErrMax= 2.60D-07  0.00D+00 EMaxC= 1.00D-01 BMatC= 1.38D-09 BMatP= 8.12D-09
 IDIUse=1 WtCom= 1.00D+00 WtEn= 0.00D+00
 Coeff-Com: -0.374D-05 0.772D-05-0.975D-04 0.317D-04-0.244D-03-0.153D-03
 Coeff-Com: -0.769D-03-0.147D-02 0.267D-03 0.128D-01 0.796D-01 0.335D+00
 Coeff-Com:  0.575D+00
 Coeff:     -0.374D-05 0.772D-05-0.975D-04 0.317D-04-0.244D-03-0.153D-03
 Coeff:     -0.769D-03-0.147D-02 0.267D-03 0.128D-01 0.796D-01 0.335D+00
 Coeff:      0.575D+00
 Gap=     0.115 Goal=   None    Shift=    0.000
 RMSDP=1.99D-08 MaxDP=5.25D-06 DE=-7.78D-09 OVMax= 1.17D-05

 Cycle  14  Pass 1  IDiag  1:
 RMSU=  1.57D-08    CP:  1.00D+00  5.18D-01  5.35D-01  2.12D-01  8.59D-01
                    CP:  5.62D-01  8.30D-01  8.75D-01  7.54D-01  7.46D-01
                    CP:  8.08D-01  8.35D-01  8.55D-01
 E= -6142.00742055813     Delta-E=       -0.000000001462 Rises=F Damp=F
 DIIS: error= 9.25D-08 at cycle  14 NSaved=  14.
 NSaved=14 IEnMin=14 EnMin= -6142.00742055813     IErMin=14 ErrMin= 9.25D-08
 ErrMax= 9.25D-08  0.00D+00 EMaxC= 1.00D-01 BMatC= 2.08D-10 BMatP= 1.38D-09
 IDIUse=1 WtCom= 1.00D+00 WtEn= 0.00D+00
 Coeff-Com: -0.228D-05 0.661D-05-0.250D-04 0.711D-05-0.283D-04-0.104D-04
 Coeff-Com: -0.589D-03-0.277D-02-0.564D-02-0.788D-02 0.849D-02 0.118D+00
 Coeff-Com:  0.355D+00 0.536D+00
 Coeff:     -0.228D-05 0.661D-05-0.250D-04 0.711D-05-0.283D-04-0.104D-04
 Coeff:     -0.589D-03-0.277D-02-0.564D-02-0.788D-02 0.849D-02 0.118D+00
 Coeff:      0.355D+00 0.536D+00
 Gap=     0.115 Goal=   None    Shift=    0.000
 RMSDP=1.02D-08 MaxDP=5.33D-06 DE=-1.46D-09 OVMax= 4.05D-06

 Cycle  15  Pass 1  IDiag  1:
 RMSU=  6.11D-09    CP:  1.00D+00  5.18D-01  5.35D-01  2.12D-01  8.59D-01
                    CP:  5.62D-01  8.30D-01  8.76D-01  7.54D-01  7.47D-01
                    CP:  8.18D-01  8.52D-01  8.77D-01  7.55D-01
 E= -6142.00742055742     Delta-E=        0.000000000706 Rises=F Damp=F
 DIIS: error= 2.93D-08 at cycle  15 NSaved=  15.
 NSaved=15 IEnMin=14 EnMin= -6142.00742055813     IErMin=15 ErrMin= 2.93D-08
 ErrMax= 2.93D-08  0.00D+00 EMaxC= 1.00D-01 BMatC= 2.23D-11 BMatP= 2.08D-10
 IDIUse=1 WtCom= 1.00D+00 WtEn= 0.00D+00
 Coeff-Com: -0.725D-06 0.245D-05-0.103D-05-0.129D-06 0.153D-04 0.134D-04
 Coeff-Com: -0.211D-03-0.127D-02-0.315D-02-0.587D-02-0.622D-02 0.179D-01
 Coeff-Com:  0.123D+00 0.302D+00 0.574D+00
 Coeff:     -0.725D-06 0.245D-05-0.103D-05-0.129D-06 0.153D-04 0.134D-04
 Coeff:     -0.211D-03-0.127D-02-0.315D-02-0.587D-02-0.622D-02 0.179D-01
 Coeff:      0.123D+00 0.302D+00 0.574D+00
 Gap=     0.115 Goal=   None    Shift=    0.000
 RMSDP=2.78D-09 MaxDP=1.06D-06 DE= 7.06D-10 OVMax= 1.65D-06

 Cycle  16  Pass 1  IDiag  1:
 RMSU=  2.18D-09    CP:  1.00D+00  5.18D-01  5.35D-01  2.12D-01  8.59D-01
                    CP:  5.62D-01  8.30D-01  8.76D-01  7.54D-01  7.47D-01
                    CP:  8.19D-01  8.59D-01  8.90D-01  8.04D-01  8.43D-01
 E= -6142.00742055927     Delta-E=       -0.000000001848 Rises=F Damp=F
 DIIS: error= 2.02D-08 at cycle  16 NSaved=  16.
 NSaved=16 IEnMin=16 EnMin= -6142.00742055927     IErMin=16 ErrMin= 2.02D-08
 ErrMax= 2.02D-08  0.00D+00 EMaxC= 1.00D-01 BMatC= 5.25D-12 BMatP= 2.23D-11
 IDIUse=1 WtCom= 1.00D+00 WtEn= 0.00D+00
 Coeff-Com: -0.105D-06 0.578D-06 0.328D-05-0.124D-05 0.143D-04 0.100D-04
 Coeff-Com: -0.481D-04-0.392D-03-0.117D-02-0.251D-02-0.503D-02-0.643D-02
 Coeff-Com:  0.268D-01 0.111D+00 0.369D+00 0.509D+00
 Coeff:     -0.105D-06 0.578D-06 0.328D-05-0.124D-05 0.143D-04 0.100D-04
 Coeff:     -0.481D-04-0.392D-03-0.117D-02-0.251D-02-0.503D-02-0.643D-02
 Coeff:      0.268D-01 0.111D+00 0.369D+00 0.509D+00
 Gap=     0.115 Goal=   None    Shift=    0.000
 RMSDP=1.21D-09 MaxDP=4.36D-07 DE=-1.85D-09 OVMax= 4.70D-07

 Error on total polarization charges =  0.09222
 SCF Done:  E(RB3LYP) =  -6142.00742056     A.U. after   16 cycles
            NFock= 16  Conv=0.12D-08     -V/T= 2.0355
 KE= 5.931179051991D+03 PE=-6.830769537881D+04 EE= 2.924209196188D+04
 SMD-CDS (non-electrostatic) energy       (kcal/mol) =     -20.62
 (included in total energy above)
 Leave Link  502 at Wed Jun 12 19:00:00 2024, MaxMem=  8589934592 cpu:          393622.4 elap:           12490.6
 (Enter /opt/packages/gaussian/g16RevC.01/g16/l601.exe)
 Copying SCF densities to generalized density rwf, IOpCl= 0 IROHF=0.
 Hyperfine terms turned off by default for NAtoms > 100.

 **********************************************************************

            Population analysis using the SCF Density.

 **********************************************************************

 Alpha  occ. eigenvalues --  -89.02547 -89.02506 -24.71740 -24.71516 -24.71314
 Alpha  occ. eigenvalues --  -24.71246 -24.71114 -24.71087 -24.69994 -24.69147
 Alpha  occ. eigenvalues --  -19.14179 -19.13693 -19.13645 -19.10419 -19.08968
 Alpha  occ. eigenvalues --  -19.08871 -19.08657 -19.08652 -14.37804 -14.35607
 Alpha  occ. eigenvalues --  -14.34294 -14.31909 -14.31869 -14.27655 -10.42329
 Alpha  occ. eigenvalues --  -10.42116 -10.28907 -10.27727 -10.27332 -10.27248
 Alpha  occ. eigenvalues --  -10.26460 -10.26289 -10.25287 -10.23901 -10.22336
 Alpha  occ. eigenvalues --  -10.22250 -10.22060 -10.21956 -10.21543 -10.21370
 Alpha  occ. eigenvalues --  -10.21343 -10.21220 -10.21109 -10.21107 -10.21090
 Alpha  occ. eigenvalues --  -10.21058 -10.20837 -10.20803 -10.20332 -10.20326
 Alpha  occ. eigenvalues --  -10.20302 -10.20184 -10.20177 -10.20119 -10.20115
 Alpha  occ. eigenvalues --  -10.20029 -10.19813 -10.19750 -10.19659 -10.19217
 Alpha  occ. eigenvalues --  -10.19135 -10.19078 -10.19011 -10.18997 -10.18989
 Alpha  occ. eigenvalues --  -10.18911 -10.18813 -10.18738 -10.18676 -10.18556
 Alpha  occ. eigenvalues --  -10.18441 -10.18381 -10.18377 -10.18368 -10.18295
 Alpha  occ. eigenvalues --  -10.18281 -10.18087 -10.18047 -10.17980 -10.17939
 Alpha  occ. eigenvalues --  -10.17817 -10.17766 -10.17764 -10.17756 -10.17747
 Alpha  occ. eigenvalues --  -10.17739 -10.17725 -10.17695 -10.17686 -10.17664
 Alpha  occ. eigenvalues --  -10.17664 -10.17653 -10.17653 -10.17647 -10.17629
 Alpha  occ. eigenvalues --  -10.17623 -10.17609 -10.17601 -10.17580 -10.17575
 Alpha  occ. eigenvalues --  -10.17567 -10.17545 -10.17526 -10.17502 -10.17462
 Alpha  occ. eigenvalues --  -10.17352 -10.17114 -10.17068 -10.17039 -10.15425
 Alpha  occ. eigenvalues --   -8.07064  -8.07050  -6.83457  -6.03385  -6.03370
 Alpha  occ. eigenvalues --   -6.03298  -6.03285  -6.03276  -6.03254  -4.86219
 Alpha  occ. eigenvalues --   -4.84564  -4.84533  -1.90909  -1.90456  -1.90428
 Alpha  occ. eigenvalues --   -1.89041  -1.89040  -1.32373  -1.32189  -1.23842
 Alpha  occ. eigenvalues --   -1.23577  -1.23368  -1.23164  -1.22974  -1.22801
 Alpha  occ. eigenvalues --   -1.10875  -1.09299  -1.07942  -1.05766  -1.05555
 Alpha  occ. eigenvalues --   -1.04770  -1.00496  -1.00301  -0.98388  -0.98331
 Alpha  occ. eigenvalues --   -0.94442  -0.94366  -0.93497  -0.89967  -0.88532
 Alpha  occ. eigenvalues --   -0.88041  -0.87872  -0.87678  -0.87637  -0.87615
 Alpha  occ. eigenvalues --   -0.85367  -0.85257  -0.83799  -0.83589  -0.83452
 Alpha  occ. eigenvalues --   -0.83032  -0.81210  -0.80233  -0.80141  -0.79202
 Alpha  occ. eigenvalues --   -0.78890  -0.78707  -0.78580  -0.78522  -0.78283
 Alpha  occ. eigenvalues --   -0.78133  -0.78052  -0.77982  -0.76701  -0.76109
 Alpha  occ. eigenvalues --   -0.76071  -0.75516  -0.75180  -0.74655  -0.74586
 Alpha  occ. eigenvalues --   -0.74340  -0.73918  -0.72887  -0.72750  -0.72506
 Alpha  occ. eigenvalues --   -0.72132  -0.72106  -0.71559  -0.70862  -0.70376
 Alpha  occ. eigenvalues --   -0.70320  -0.70106  -0.68506  -0.67991  -0.67464
 Alpha  occ. eigenvalues --   -0.67324  -0.66872  -0.65444  -0.65088  -0.64731
 Alpha  occ. eigenvalues --   -0.64579  -0.64462  -0.63845  -0.63777  -0.63299
 Alpha  occ. eigenvalues --   -0.63055  -0.62722  -0.62627  -0.62535  -0.62326
 Alpha  occ. eigenvalues --   -0.62250  -0.61681  -0.61317  -0.60937  -0.60778
 Alpha  occ. eigenvalues --   -0.60013  -0.59820  -0.59785  -0.59690  -0.59525
 Alpha  occ. eigenvalues --   -0.59325  -0.58696  -0.58614  -0.57931  -0.57827
 Alpha  occ. eigenvalues --   -0.57531  -0.57258  -0.57050  -0.56350  -0.55890
 Alpha  occ. eigenvalues --   -0.54827  -0.54661  -0.54423  -0.54067  -0.53900
 Alpha  occ. eigenvalues --   -0.53444  -0.52817  -0.52694  -0.52628  -0.52402
 Alpha  occ. eigenvalues --   -0.52256  -0.51597  -0.51115  -0.51046  -0.50969
 Alpha  occ. eigenvalues --   -0.50845  -0.50194  -0.50006  -0.49925  -0.49830
 Alpha  occ. eigenvalues --   -0.49595  -0.49530  -0.49290  -0.49113  -0.48820
 Alpha  occ. eigenvalues --   -0.48775  -0.48212  -0.48119  -0.48099  -0.47972
 Alpha  occ. eigenvalues --   -0.47891  -0.47871  -0.47821  -0.47693  -0.47420
 Alpha  occ. eigenvalues --   -0.47374  -0.47084  -0.46974  -0.46934  -0.46885
 Alpha  occ. eigenvalues --   -0.46668  -0.46432  -0.46168  -0.46062  -0.45992
 Alpha  occ. eigenvalues --   -0.45867  -0.45728  -0.45567  -0.45549  -0.45483
 Alpha  occ. eigenvalues --   -0.45273  -0.45222  -0.45148  -0.45131  -0.44619
 Alpha  occ. eigenvalues --   -0.44609  -0.44528  -0.44237  -0.44215  -0.43961
 Alpha  occ. eigenvalues --   -0.43906  -0.43821  -0.43652  -0.43492  -0.42996
 Alpha  occ. eigenvalues --   -0.42872  -0.42822  -0.42627  -0.42615  -0.42573
 Alpha  occ. eigenvalues --   -0.42498  -0.42326  -0.42252  -0.42171  -0.42145
 Alpha  occ. eigenvalues --   -0.42034  -0.41923  -0.41777  -0.41675  -0.41573
 Alpha  occ. eigenvalues --   -0.41485  -0.41220  -0.40877  -0.40813  -0.40678
 Alpha  occ. eigenvalues --   -0.40491  -0.40418  -0.40337  -0.40288  -0.40199
 Alpha  occ. eigenvalues --   -0.40147  -0.40028  -0.39840  -0.39668  -0.39546
 Alpha  occ. eigenvalues --   -0.39306  -0.39002  -0.38654  -0.38357  -0.38163
 Alpha  occ. eigenvalues --   -0.38097  -0.37997  -0.37696  -0.37592  -0.37501
 Alpha  occ. eigenvalues --   -0.37199  -0.37120  -0.37073  -0.36719  -0.36592
 Alpha  occ. eigenvalues --   -0.36547  -0.36434  -0.36419  -0.36143  -0.36056
 Alpha  occ. eigenvalues --   -0.35973  -0.35848  -0.35783  -0.35759  -0.35659
 Alpha  occ. eigenvalues --   -0.35482  -0.35401  -0.35280  -0.34791  -0.34632
 Alpha  occ. eigenvalues --   -0.34589  -0.34483  -0.34368  -0.34138  -0.33935
 Alpha  occ. eigenvalues --   -0.33855  -0.33294  -0.33196  -0.32851  -0.32749
 Alpha  occ. eigenvalues --   -0.32207  -0.31826  -0.31434  -0.31387  -0.31311
 Alpha  occ. eigenvalues --   -0.30995  -0.30491  -0.30427  -0.29887  -0.29718
 Alpha  occ. eigenvalues --   -0.29557  -0.29285  -0.28905  -0.28496  -0.28230
 Alpha  occ. eigenvalues --   -0.27851  -0.27710  -0.27665  -0.27344  -0.27235
 Alpha  occ. eigenvalues --   -0.26999  -0.26932  -0.26798  -0.26613  -0.26494
 Alpha  occ. eigenvalues --   -0.26107  -0.25917  -0.25878  -0.25737  -0.25553
 Alpha  occ. eigenvalues --   -0.25392  -0.24913  -0.24689  -0.24567  -0.24387
 Alpha  occ. eigenvalues --   -0.23615  -0.23539  -0.23460  -0.23085  -0.22737
 Alpha  occ. eigenvalues --   -0.21805  -0.21424  -0.21062
 Alpha virt. eigenvalues --   -0.09559  -0.06843  -0.06737  -0.05732  -0.05413
 Alpha virt. eigenvalues --   -0.04846  -0.04683  -0.03905  -0.03278  -0.03044
 Alpha virt. eigenvalues --   -0.02708  -0.02519  -0.02296  -0.01852  -0.01603
 Alpha virt. eigenvalues --   -0.01271  -0.01242  -0.00509   0.00048   0.00589
 Alpha virt. eigenvalues --    0.00717   0.01075   0.01377   0.01523   0.02087
 Alpha virt. eigenvalues --    0.03147   0.03684   0.03709   0.04158   0.04477
 Alpha virt. eigenvalues --    0.04674   0.04851   0.05048   0.05097   0.05377
 Alpha virt. eigenvalues --    0.05579   0.05648   0.05681   0.05885   0.06113
 Alpha virt. eigenvalues --    0.06277   0.06612   0.06704   0.06842   0.07190
 Alpha virt. eigenvalues --    0.07425   0.07491   0.07624   0.07690   0.07831
 Alpha virt. eigenvalues --    0.07960   0.08114   0.08195   0.08267   0.08449
 Alpha virt. eigenvalues --    0.08671   0.08767   0.08853   0.08948   0.09078
 Alpha virt. eigenvalues --    0.09145   0.09339   0.09511   0.09636   0.09850
 Alpha virt. eigenvalues --    0.09858   0.09912   0.10154   0.10274   0.10362
 Alpha virt. eigenvalues --    0.10559   0.10629   0.10793   0.10845   0.10926
 Alpha virt. eigenvalues --    0.11057   0.11171   0.11313   0.11407   0.11444
 Alpha virt. eigenvalues --    0.11635   0.11773   0.11851   0.11905   0.12037
 Alpha virt. eigenvalues --    0.12230   0.12315   0.12526   0.12608   0.12715
 Alpha virt. eigenvalues --    0.12772   0.12890   0.13020   0.13052   0.13089
 Alpha virt. eigenvalues --    0.13223   0.13383   0.13636   0.13726   0.13844
 Alpha virt. eigenvalues --    0.13940   0.13954   0.14047   0.14177   0.14299
 Alpha virt. eigenvalues --    0.14371   0.14398   0.14538   0.14629   0.14876
 Alpha virt. eigenvalues --    0.14920   0.14983   0.15168   0.15197   0.15373
 Alpha virt. eigenvalues --    0.15464   0.15689   0.15762   0.15846   0.15952
 Alpha virt. eigenvalues --    0.16001   0.16165   0.16247   0.16352   0.16507
 Alpha virt. eigenvalues --    0.16596   0.16707   0.16751   0.17047   0.17088
 Alpha virt. eigenvalues --    0.17306   0.17409   0.17495   0.17542   0.17824
 Alpha virt. eigenvalues --    0.17931   0.17972   0.18169   0.18465   0.18714
 Alpha virt. eigenvalues --    0.18757   0.18828   0.18974   0.19007   0.19101
 Alpha virt. eigenvalues --    0.19216   0.19385   0.19490   0.19601   0.19703
 Alpha virt. eigenvalues --    0.19840   0.19972   0.20064   0.20314   0.20367
 Alpha virt. eigenvalues --    0.20506   0.20570   0.20753   0.20865   0.20924
 Alpha virt. eigenvalues --    0.20954   0.21104   0.21198   0.21220   0.21369
 Alpha virt. eigenvalues --    0.21435   0.21487   0.21588   0.21723   0.21894
 Alpha virt. eigenvalues --    0.21961   0.22013   0.22093   0.22185   0.22299
 Alpha virt. eigenvalues --    0.22462   0.22493   0.22600   0.22780   0.22867
 Alpha virt. eigenvalues --    0.22908   0.23060   0.23195   0.23398   0.23441
 Alpha virt. eigenvalues --    0.23605   0.23667   0.23720   0.23916   0.23980
 Alpha virt. eigenvalues --    0.24073   0.24111   0.24344   0.24395   0.24410
 Alpha virt. eigenvalues --    0.24578   0.24726   0.24776   0.24835   0.24956
 Alpha virt. eigenvalues --    0.25058   0.25188   0.25264   0.25318   0.25482
 Alpha virt. eigenvalues --    0.25572   0.25649   0.25822   0.25891   0.26054
 Alpha virt. eigenvalues --    0.26127   0.26348   0.26421   0.26432   0.26669
 Alpha virt. eigenvalues --    0.26815   0.26920   0.27015   0.27058   0.27136
 Alpha virt. eigenvalues --    0.27194   0.27377   0.27487   0.27543   0.27822
 Alpha virt. eigenvalues --    0.27894   0.28018   0.28089   0.28161   0.28361
 Alpha virt. eigenvalues --    0.28479   0.28555   0.28695   0.28761   0.28890
 Alpha virt. eigenvalues --    0.29002   0.29031   0.29168   0.29221   0.29382
 Alpha virt. eigenvalues --    0.29453   0.29647   0.29765   0.29816   0.29857
 Alpha virt. eigenvalues --    0.29919   0.30030   0.30060   0.30194   0.30356
 Alpha virt. eigenvalues --    0.30441   0.30490   0.30548   0.30718   0.30833
 Alpha virt. eigenvalues --    0.30926   0.31000   0.31062   0.31271   0.31330
 Alpha virt. eigenvalues --    0.31453   0.31598   0.31760   0.31847   0.32032
 Alpha virt. eigenvalues --    0.32113   0.32202   0.32239   0.32403   0.32452
 Alpha virt. eigenvalues --    0.32564   0.32598   0.32773   0.32845   0.33029
[...]
 Alpha virt. eigenvalues --    6.12502   6.12592   6.12931   6.13829   6.14641
 Alpha virt. eigenvalues --    6.15803   6.16658   6.17265   6.18318   6.21416
 Alpha virt. eigenvalues --    6.21990   6.23241   6.23802   6.25212   6.25561
 Alpha virt. eigenvalues --    6.28085   6.30562   6.33236   6.35677   6.35682
 Alpha virt. eigenvalues --    6.41336   6.42848   6.43798   6.44861   6.46091
 Alpha virt. eigenvalues --    6.46861   6.46968   6.47201   6.47683   6.48759
 Alpha virt. eigenvalues --    6.50109   6.55208   6.55453   6.56023   6.57407
 Alpha virt. eigenvalues --    6.59044   6.59295   6.61225   6.61784   6.64982
 Alpha virt. eigenvalues --    6.68118   6.68289   6.69736   6.71276   6.76603
 Alpha virt. eigenvalues --    6.76803   6.76990   6.77885   6.78874   6.78963
 Alpha virt. eigenvalues --    6.78968   6.78994   6.79924   6.80594   6.82246
 Alpha virt. eigenvalues --    6.82589   6.82768   6.83222   6.83269   6.84051
 Alpha virt. eigenvalues --    6.84091   6.84714   6.84763   6.85255   6.85321
 Alpha virt. eigenvalues --    6.85940   6.86000   6.86149   6.86468   6.86549
 Alpha virt. eigenvalues --    6.86655   6.87089   6.87178   6.87801   6.87968
 Alpha virt. eigenvalues --    6.88397   6.88973   6.89680   6.90302   6.91550
 Alpha virt. eigenvalues --    6.91683   6.92010   6.92473   6.96078   6.97413
 Alpha virt. eigenvalues --    6.97446   6.97619   6.97876   6.98043   6.98923
 Alpha virt. eigenvalues --    7.00309   7.01380   7.01632   7.01674   7.02219
 Alpha virt. eigenvalues --    7.02293   7.05209   7.05632   7.05762   7.08972
 Alpha virt. eigenvalues --    7.09014   7.09352   7.10453   7.12359   7.12938
 Alpha virt. eigenvalues --    7.13266   7.13401   7.13477   7.14723   7.19027
 Alpha virt. eigenvalues --    7.20556   7.24644   7.24693   7.27260   7.29317
 Alpha virt. eigenvalues --    7.34465   7.35077   7.36552   7.36619   7.36760
 Alpha virt. eigenvalues --    7.37118   7.40831   7.41118   7.43899   7.44043
 Alpha virt. eigenvalues --    7.45818   7.48804   7.48992   7.50025   7.56996
 Alpha virt. eigenvalues --    7.58055   7.59182   7.59286   7.60008   7.62766
 Alpha virt. eigenvalues --    7.62941   7.64365   7.67707   7.78113   7.90141
 Alpha virt. eigenvalues --    7.91751   8.01689   8.07319   8.26997   8.28819
 Alpha virt. eigenvalues --    8.30505   8.30872   8.31250   8.31507   8.37044
 Alpha virt. eigenvalues --    8.43343   8.45684   8.45851   8.49325   8.49604
 Alpha virt. eigenvalues --    8.57419   8.57636   8.57707   8.64912   8.67727
 Alpha virt. eigenvalues --    8.67933   8.75449   8.75631   8.76809   8.78674
 Alpha virt. eigenvalues --    8.78744   8.84926   8.88998   8.89409   8.94971
 Alpha virt. eigenvalues --    8.95504   8.98356   8.99652   9.00149   9.02763
 Alpha virt. eigenvalues --    9.02969   9.04511   9.10254   9.10314   9.11867
 Alpha virt. eigenvalues --    9.16254   9.17122   9.26514   9.57153   9.59046
 Alpha virt. eigenvalues --    9.79247   9.86685  10.15946  10.18543  22.56612
 Alpha virt. eigenvalues --   22.65757  22.66302  22.68461  22.71583  22.85652
 Alpha virt. eigenvalues --   22.88354  22.88701  22.89558  22.90457  22.92690
 Alpha virt. eigenvalues --   22.94072  22.97173  23.00873  23.01041  23.03001
 Alpha virt. eigenvalues --   23.04990  23.05965  23.06902  23.08080  23.09378
 Alpha virt. eigenvalues --   23.09973  23.10987  23.12062  23.12458  23.12889
 Alpha virt. eigenvalues --   23.15088  23.15375  23.15621  23.16538  23.16839
 Alpha virt. eigenvalues --   23.17865  23.18567  23.18841  23.19302  23.20509
 Alpha virt. eigenvalues --   23.20914  23.21705  23.22517  23.23767  23.24421
 Alpha virt. eigenvalues --   23.24930  23.25755  23.26014  23.26980  23.27174
 Alpha virt. eigenvalues --   23.28022  23.28642  23.29015  23.30169  23.30879
 Alpha virt. eigenvalues --   23.31462  23.32058  23.33655  23.34434  23.35262
 Alpha virt. eigenvalues --   23.35488  23.37868  23.39650  23.39958  23.42380
 Alpha virt. eigenvalues --   23.42647  23.43550  23.44427  23.44559  23.45006
 Alpha virt. eigenvalues --   23.45394  23.52899  23.53129  23.54868  23.55561
 Alpha virt. eigenvalues --   23.57842  23.60434  23.61903  23.73611  23.79968
 Alpha virt. eigenvalues --   23.81002  23.82226  23.92606  23.93505  24.12371
 Alpha virt. eigenvalues --   24.12811  24.15590  24.15983  24.22316  24.27586
 Alpha virt. eigenvalues --   24.30756  24.42181  32.52324  32.64967  32.86350
 Alpha virt. eigenvalues --   33.09147  33.26393  33.33523  34.70326  34.77100
 Alpha virt. eigenvalues --   35.05935  43.24172  44.01283  44.02021  44.08383
 Alpha virt. eigenvalues --   44.20303  44.27343  44.28057  44.28489  44.53596
 Alpha virt. eigenvalues --   57.12893  57.16244  57.23735  57.26652  57.45442
 Alpha virt. eigenvalues --   57.48449  57.49554  57.80436 117.94354
          Condensed to atoms (all electrons):
 Mulliken charges:
               1
     1  C    0.262532
     2  C   -0.098944
     3  C    0.056275
     4  C   -0.191087
     5  C    0.220600
     6  N   -0.332047
     7  H    0.141949
     8  C   -0.136258
     9  C    0.126156
    10  C   -0.179863
    11  C   -0.154345
    12  C   -0.104115
    13  H    0.142212
    14  H    0.148754
    15  H    0.158363
    16  C    0.302835
    17  C    0.131061
    18  C   -0.232887
    19  C   -0.216972
    20  C   -0.159567
    21  H    0.148506
    22  C   -0.170926
    23  H    0.159256
    24  C   -0.163170
    25  H    0.149638
    26  H    0.152879
    27  H    0.151633
    28  F   -0.223942
    29  C   -0.273902
    30  H    0.094700
    31  H    0.125242
    32  H    0.115436
    33  C   -0.058688
    34  C   -0.021903
    35  C    0.020907
    36  H    0.099280
    37  H    0.103247
    38  C   -0.006019
    39  H    0.111363
    40  H    0.100507
    41  H    0.074517
    42  H    0.102925
    43  H    0.088942
    44  H    0.098312
    45  N   -0.013587
    46  O   -0.335697
    47  I    0.008331
    48  H    0.199854
    49  C   -0.144531
    50  C   -0.180932
    51  C   -0.017524
    52  C   -0.064864
    53  C   -0.144073
    54  C   -0.138020
    55  H    0.152974
    56  H    0.159920
    57  C    0.033154
    58  C   -0.077725
    59  H    0.145185
    60  H    0.151629
    61  C   -0.169867
    62  C   -0.045732
    63  H    0.145110
    64  C    0.130550
    65  C   -0.129801
    66  C   -0.083436
    67  C   -0.072290
    68  C   -0.029133
    69  C   -0.183599
    70  C   -0.117997
    71  C   -0.141469
    72  C   -0.143520
    73  H    0.162112
    74  H    0.145572
    75  C   -0.139679
    76  H    0.145067
    77  H    0.153038
    78  H    0.151934
    79  S    0.907917
    80  O   -0.524108
    81  O   -0.555901
    82  S    0.894381
    83  O   -0.511538
    84  O   -0.561632
    85  N   -0.445117
    86  C    0.049011
    87  C    0.305764
    88  C    0.010462
    89  C    0.209189
    90  C   -0.048438
    91  C   -0.168087
    92  C   -0.247913
    93  C   -0.093686
    94  C   -0.089063
    95  H    0.212018
    96  C   -0.133413
    97  H    0.158281
    98  H    0.155487
    99  H    0.135941
   100  C   -0.100389
   101  C   -0.169467
   102  C   -0.181461
   103  C   -0.127037
   104  H    0.150196
   105  C   -0.083774
   106  C   -0.168091
   107  H    0.161020
   108  H    0.156758
   109  H    0.157940
   110  C    0.552159
   111  F   -0.188971
   112  F   -0.187067
   113  F   -0.189985
   114  C    0.542731
   115  F   -0.187637
   116  F   -0.189603
   117  F   -0.188437
   118  N   -0.343973
   119  C    0.307378
   120  C   -0.147128
   121  C   -0.122640
   122  C    0.209030
   123  O   -0.340956
   124  O   -0.388189
   125  H    0.112303
   126  H    0.114437
   127  H    0.102671
   128  H    0.099909
   129  C    0.080714
   130  C   -0.181662
   131  C   -0.009056
   132  C   -0.140095
   133  C    0.118252
   134  N   -0.205275
   135  H    0.142136
   136  C   -0.165239
   137  C    0.298566
   138  C   -0.223841
   139  C   -0.285860
   140  C   -0.118873
   141  H    0.168425
   142  H    0.177802
   143  H    0.148205
   144  C    0.392128
   145  C   -0.012592
   146  C   -0.197354
   147  C   -0.189185
   148  C   -0.169711
   149  H    0.162188
   150  C   -0.184277
   151  H    0.154665
   152  C   -0.152245
   153  H    0.153906
   154  H    0.147699
   155  H    0.151829
   156  F   -0.236357
   157  C   -0.264170
   158  H    0.112504
   159  H    0.111648
   160  H    0.089993
   161  C   -0.058295
   162  C   -0.010967
   163  C    0.021554
   164  H    0.091421
   165  H    0.086266
   166  C   -0.020417
   167  H    0.089404
   168  H    0.092700
   169  H    0.066511
   170  H    0.097482
   171  H    0.077673
   172  H    0.102230
   173  N   -0.077275
   174  O   -0.339101
   175  H    0.145131
   176  H    0.365186
 Sum of Mulliken charges =   0.00000
 Mulliken charges with hydrogens summed into heavy atoms:
               1
     1  C    0.262532
     2  C    0.100910
     3  C    0.056275
     4  C   -0.049138
     5  C    0.220600
     6  N   -0.332047
     8  C   -0.136258
     9  C    0.126156
    10  C   -0.037651
    11  C    0.004018
    12  C    0.044639
    16  C    0.302835
    17  C    0.131061
    18  C   -0.084381
    19  C   -0.057716
    20  C   -0.009928
    22  C   -0.018047
    24  C   -0.011537
    28  F   -0.223942
    29  C    0.061476
    33  C    0.143840
    34  C    0.189967
    35  C    0.198349
    38  C    0.181235
    45  N   -0.013587
    46  O   -0.335697
    47  I    0.008331
    49  C    0.008443
    50  C   -0.021012
    51  C   -0.017524
    52  C   -0.064864
    53  C    0.001112
    54  C    0.013609
    57  C    0.033154
    58  C    0.067385
    61  C   -0.169867
    62  C   -0.045732
    64  C    0.130550
    65  C   -0.129801
    66  C   -0.083436
    67  C   -0.072290
    68  C   -0.029133
    69  C   -0.021487
    70  C    0.027575
    71  C    0.003598
    72  C    0.009518
    75  C    0.012255
    79  S    0.907917
    80  O   -0.524108
    81  O   -0.555901
    82  S    0.894381
    83  O   -0.511538
    84  O   -0.561632
    85  N   -0.445117
    86  C    0.049011
    87  C    0.305764
    88  C    0.010462
    89  C    0.209189
    90  C   -0.048438
    91  C   -0.168087
    92  C   -0.035895
    93  C    0.064596
    94  C    0.066424
    96  C    0.002527
   100  C   -0.100389
   101  C   -0.019271
   102  C   -0.181461
   103  C    0.033983
   105  C    0.072984
   106  C   -0.010151
   110  C    0.552159
   111  F   -0.188971
   112  F   -0.187067
   113  F   -0.189985
   114  C    0.542731
   115  F   -0.187637
   116  F   -0.189603
   117  F   -0.188437
   118  N   -0.343973
   119  C    0.307378
   120  C    0.079611
   121  C    0.079940
   122  C    0.209030
   123  O   -0.340956
   124  O   -0.023002
   129  C    0.080714
   130  C   -0.036531
   131  C   -0.009056
   132  C    0.002041
   133  C    0.118252
   134  N   -0.205275
   136  C   -0.165239
   137  C    0.298566
   138  C   -0.055416
   139  C   -0.137656
   140  C    0.058929
   144  C    0.392128
   145  C   -0.012592
   146  C   -0.035166
   147  C   -0.034520
   148  C   -0.015805
   150  C   -0.036579
   152  C   -0.000416
   156  F   -0.236357
   157  C    0.049975
   161  C    0.119392
   162  C    0.171137
   163  C    0.185547
   166  C    0.159486
   173  N   -0.077275
   174  O   -0.339101
 Electronic spatial extent (au):  <R**2>=         141218.4844
 Charge=              0.0000 electrons
 Dipole moment (field-independent basis, Debye):
    X=             12.2613    Y=            -15.5366    Z=            -11.2616  Tot=             22.7717
 Quadrupole moment (field-independent basis, Debye-Ang):
   XX=           -666.7346   YY=           -544.0421   ZZ=           -507.3849
   XY=            -39.5967   XZ=              9.5383   YZ=            136.7318
 Traceless Quadrupole moment (field-independent basis, Debye-Ang):
   XX=            -94.0140   YY=             28.6784   ZZ=             65.3356
   XY=            -39.5967   XZ=              9.5383   YZ=            136.7318
 Octapole moment (field-independent basis, Debye-Ang**2):
  XXX=            704.6472  YYY=           3156.4000  ZZZ=           2671.3053  XYY=           -126.3734
  XXY=           1430.6422  XXZ=           1335.5763  XZZ=            -43.1229  YZZ=            134.5620
  YYZ=            230.8984  XYZ=           -175.2454
 Hexadecapole moment (field-independent basis, Debye-Ang**3):
 XXXX=         -50044.4911 YYYY=         -68448.3247 ZZZZ=         -48366.2716 XXXY=            846.4029
 XXXZ=           3749.7429 YYYX=           2703.6527 YYYZ=          -9476.4268 ZZZX=           4795.1055
 ZZZY=          -7526.2829 XXYY=         -21808.7750 XXZZ=         -18606.1445 YYZZ=         -13792.4798
 XXYZ=          -5674.1598 YYXZ=           2835.3332 ZZXY=           1545.4502
 N-N= 2.699241694438D+04 E-N=-6.830769543249D+04  KE= 5.931179051991D+03
 Leave Link  601 at Wed Jun 12 19:00:03 2024, MaxMem=  8589934592 cpu:              60.0 elap:               3.0
 (Enter /opt/packages/gaussian/g16RevC.01/g16/l9999.exe)
 Unable to Open any file for archive entry.
 1\1\GINC-R394\SP\RB3LYP\def2TZVPP\C86H65F8I1N6O8S2\BIM2\12-Jun-2024\0\
 \#p b3lyp def2tzvpp scf=maxcycle=128 nosymm scrf=(smd,solvent=propylet
 hanoate) empiricaldispersion=gd3bj\\Title Card Required\\0,1\C,0,1.803
 741,-2.098419,-0.645233\C,0,0.369005,-2.389119,-0.652344\C,0,-0.259582
 ,-2.45205,0.666169\C,0,0.522035,-2.505789,1.780588\C,0,1.948191,-2.500
 373,1.629479\N,0,2.526365,-2.193299,0.431282\H,0,0.052119,-2.576453,2.
 758165\C,0,2.533785,-1.651908,-1.869741\C,0,3.881017,-2.027857,-2.1296
 6\C,0,4.58381,-1.398677,-3.163142\C,0,2.67261,-0.05665,-3.737869\C,0,3
 .995691,-0.412227,-3.953554\H,0,5.610778,-1.70787,-3.363268\H,0,4.5678
 01,0.069861,-4.74778\H,0,2.163636,0.708158,-4.325235\C,0,1.972075,-0.6
 83285,-2.714928\C,0,4.596231,-3.104783,-1.385754\C,0,5.915006,-2.90305
 1,-0.956621\C,0,4.004419,-4.356479,-1.165115\C,0,6.613571,-3.914849,-0
 .295093\H,0,6.394596,-1.938859,-1.13196\C,0,4.701015,-5.366975,-0.5080
 17\H,0,2.989157,-4.541385,-1.520001\C,0,6.008047,-5.148802,-0.064399\H
 ,0,7.637118,-3.734848,0.039055\H,0,4.22104,-6.334376,-0.347979\H,0,6.5
 52145,-5.941033,0.453191\F,0,0.707041,-0.304822,-2.551625\C,0,-1.75343
 ,-2.520307,0.76782\H,0,-2.229833,-2.381786,-0.20946\H,0,-2.060316,-3.4
 8958,1.192332\H,0,-2.107439,-1.722475,1.438113\C,0,2.378989,-3.002216,
 4.015522\C,0,4.238935,-2.825116,2.454986\C,0,2.993793,-4.304383,4.5139
 56\H,0,1.291487,-3.047722,4.107246\H,0,2.747511,-2.162237,4.626417\C,0
 ,4.757667,-4.139165,3.02507\H,0,4.480813,-2.742675,1.390528\H,0,4.6898
 58,-1.981029,3.002798\H,0,2.55424,-5.151731,3.953749\H,0,2.763306,-4.4
 32476,5.579616\H,0,4.364573,-4.978605,2.42077\H,0,5.854524,-4.154546,2
 .972129\N,0,2.785247,-2.759982,2.632791\O,0,4.390085,-4.294894,4.37309
 2\I,0,0.076665,-4.487188,-1.490846\H,0,-0.216458,-1.835274,-1.388996\C
 ,0,-4.296036,5.86781,-2.184677\C,0,-4.029941,4.727398,-1.464928\C,0,-2
 .69968,4.235162,-1.3458\C,0,-1.658032,4.93479,-2.019035\C,0,-1.960979,
 6.119109,-2.74793\C,0,-3.251343,6.579501,-2.825475\H,0,-5.323352,6.225
 866,-2.268286\H,0,-4.848173,4.186788,-0.989016\C,0,-2.381225,3.047397,
 -0.606351\C,0,-0.339126,4.427365,-1.975912\H,0,-1.146199,6.644677,-3.2
 49761\H,0,-3.479383,7.485607,-3.389015\C,0,-0.038345,3.257151,-1.30448
 9\C,0,-1.080363,2.566842,-0.601601\H,0,0.456406,4.962379,-2.497536\C,0
 ,-3.491768,2.326441,0.109332\C,0,-3.88886,1.053263,-0.260654\C,0,-4.08
 9649,2.951463,1.25523\C,0,-4.839245,0.316273,0.519706\C,0,-5.115886,2.
 261144,1.963284\C,0,-3.684423,4.230006,1.732768\C,0,-5.458878,0.942089
 ,1.584397\C,0,-5.738984,2.88161,3.082424\C,0,-4.297426,4.801418,2.8223
 89\H,0,-2.874046,4.759645,1.232205\H,0,-6.194571,0.392267,2.173903\C,0
 ,-5.344336,4.127997,3.499452\H,0,-6.528658,2.338926,3.605877\H,0,-3.97
 0727,5.781784,3.172707\H,0,-5.823942,4.597725,4.359634\S,0,-0.820747,0
 .925846,0.087173\O,0,-1.435966,0.922789,1.383454\O,0,0.570172,0.582377
 ,0.067962\S,0,-2.971066,0.297077,-1.601105\O,0,-2.912238,1.270499,-2.6
 51326\O,0,-3.560563,-0.958233,-1.969563\N,0,-1.566093,0.002959,-0.9536
 17\C,0,1.32047,2.800956,-1.333931\C,0,2.483965,2.456905,-1.355361\C,0,
 -5.077408,-1.082102,0.310761\C,0,-5.168682,-2.286682,0.191276\C,0,-5.0
 44078,-3.685484,-0.096379\C,0,-5.64088,-4.696062,0.679801\C,0,-4.22004
 3,-4.055165,-1.173632\C,0,-5.404633,-6.038268,0.392331\C,0,-3.98293,-5
 .397351,-1.450612\H,0,-3.756861,-3.261563,-1.762531\C,0,-4.568789,-6.3
 9156,-0.666791\H,0,-5.866328,-6.809926,1.00854\H,0,-3.322879,-5.660913
 ,-2.280616\H,0,-4.356616,-7.442523,-0.864351\C,0,3.802093,1.919732,-1.
 19455\C,0,3.984994,0.917609,-0.227866\C,0,4.911039,2.351199,-1.946948\
 C,0,5.250403,0.385478,0.000289\H,0,3.112114,0.57061,0.328691\C,0,6.173
 721,1.812785,-1.71645\C,0,6.34683,0.836779,-0.734848\H,0,5.376207,-0.3
 92234,0.75614\H,0,7.02375,2.159416,-2.304442\H,0,7.340889,0.425608,-0.
 551797\C,0,4.710386,3.375375,-3.030786\F,0,5.85873,3.704451,-3.627499\
 F,0,4.172176,4.506529,-2.565597\F,0,3.88968,2.925897,-3.989232\C,0,-6.
 514577,-4.311417,1.843268\F,0,-7.032579,-5.37893,2.455461\F,0,-7.53995
 1,-3.540671,1.466193\F,0,-5.83727,-3.621492,2.767969\N,0,-0.424359,-6.
 70938,-2.524103\C,0,-0.299214,-6.792403,-3.831348\C,0,-1.23253,-7.8058
 62,-4.466601\C,0,-1.865679,-8.474158,-3.251537\C,0,-1.359058,-7.64191,
 -2.072154\O,0,-1.700687,-7.76458,-0.923838\O,0,0.512008,-6.075731,-4.4
 86924\H,0,-1.963748,-7.26291,-5.086971\H,0,-0.670256,-8.480615,-5.1282
 44\H,0,-1.534487,-9.51272,-3.111458\H,0,-2.963656,-8.472362,-3.256961\
 C,0,-1.164479,-5.154936,-7.037272\C,0,-2.055276,-5.275335,-8.083905\C,
 0,-1.901571,-6.351227,-8.986597\C,0,-0.846874,-7.230703,-8.814304\C,0,
 0.045303,-7.056434,-7.725326\N,0,-0.173491,-6.055158,-6.855521\H,0,-0.
 68669,-8.026143,-9.539419\C,0,-1.22266,-4.03536,-6.057342\C,0,-0.09270
 6,-3.252035,-5.730326\C,0,-0.233757,-2.212011,-4.806454\C,0,-2.564714,
 -2.729001,-4.472418\C,0,-1.450044,-1.946584,-4.183527\H,0,0.632913,-1.
 58871,-4.596129\H,0,-1.52802,-1.125434,-3.470123\H,0,-3.528355,-2.5495
 06,-3.99436\C,0,-2.424646,-3.75053,-5.401276\C,0,1.259528,-3.492479,-6
 .309131\C,0,2.359801,-3.579819,-5.444297\C,0,1.470933,-3.619701,-7.689
 478\C,0,3.64148,-3.808366,-5.946798\H,0,2.20207,-3.488904,-4.366003\C,
 0,2.751655,-3.842537,-8.190839\H,0,0.623799,-3.538653,-8.374937\C,0,3.
 840574,-3.942966,-7.32071\H,0,4.484002,-3.885751,-5.2565\H,0,2.902569,
 -3.93311,-9.268239\H,0,4.842434,-4.121972,-7.715634\F,0,-3.489291,-4.5
 24807,-5.659655\C,0,-2.857333,-6.497829,-10.133522\H,0,-3.882862,-6.62
 4344,-9.75603\H,0,-2.851406,-5.589018,-10.753006\H,0,-2.604945,-7.3584
 93,-10.764986\C,0,1.297822,-9.177133,-8.069362\C,0,2.269761,-7.410381,
 -6.701428\C,0,2.61236,-9.258492,-8.829768\H,0,0.455413,-9.439318,-8.71
 7167\H,0,1.324108,-9.905532,-7.239615\C,0,3.546696,-7.586696,-7.515764
 \H,0,2.165719,-6.35096,-6.433826\H,0,2.329191,-8.001712,-5.771504\H,0,
 2.570791,-8.589564,-9.711429\H,0,2.787549,-10.285816,-9.176102\H,0,3.5
 30952,-6.873144,-8.36251\H,0,4.420972,-7.364803,-6.888654\N,0,1.127521
 ,-7.846794,-7.501581\O,0,3.686919,-8.901582,-7.995697\H,0,-2.853373,-4
 .544482,-8.213435\H,0,0.297696,-6.078347,-5.641453\\Version=ES64L-G16R
 evC.01\HF=-6142.0074206\RMSD=1.213e-09\Dipole=4.8239702,-6.1125675,-4.
 4306589\Quadrupole=-69.8971418,21.3216879,48.5754539,-29.439147,7.0915
 109,101.6567769\PG=C01 [X(C86H65F8I1N6O8S2)]\\@
 The archive entry for this job was punched.


 MAN IS A SINGULAR CREATURE.  HE HAS A SET OF GIFTS
 WHICH MAKE HIM UNIQUE AMONG THE ANIMALS: SO THAT, 
 UNLIKE THEM, HE IS NOT A FIGURE IN THE LANDSCAPE --
 HE IS A SHAPER OF THE LANDSCAPE.

                       -- JACOB BRONOWSKI
 Job cpu time:       4 days 14 hours 17 minutes 25.3 seconds.
 Elapsed time:       0 days  3 hours 30 minutes  3.3 seconds.
 File lengths (MBytes):  RWF=  12580 Int=      0 D2E=      0 Chk=   1110 Scr=      1
 Normal termination of Gaussian 16 at Wed Jun 12 19:00:04 2024.
