 Entering Gaussian System, Link 0=/cm/shared/apps/spack/cpu/opt/spack/linux-centos8-zen/gcc-8.3.1/gaussian-16.C.01-po5bqktfeugvmjyga3v7eigbecnokxng/g16/g16
 Initial command:
 /cm/shared/apps/spack/cpu/opt/spack/linux-centos8-zen/gcc-8.3.1/gaussian-16.C.01-po5bqktfeugvmjyga3v7eigbecnokxng/g16/l1.exe "/scratch/bim12/job_31771975/Gau-1426052.inp" -scrdir="/scratch/bim12/job_31771975/"
 Entering Link 1 = /cm/shared/apps/spack/cpu/opt/spack/linux-centos8-zen/gcc-8.3.1/gaussian-16.C.01-po5bqktfeugvmjyga3v7eigbecnokxng/g16/l1.exe PID=   1426054.
  
 Copyright (c) 1988-2019, Gaussian, Inc.  All Rights Reserved.
  
 This is part of the Gaussian(R) 16 program.  It is based on
 the Gaussian(R) 09 system (copyright 2009, Gaussian, Inc.),
 the Gaussian(R) 03 system (copyright 2003, Gaussian, Inc.),
 the Gaussian(R) 98 system (copyright 1998, Gaussian, Inc.),
 the Gaussian(R) 94 system (copyright 1995, Gaussian, Inc.),
 the Gaussian 92(TM) system (copyright 1992, Gaussian, Inc.),
 the Gaussian 90(TM) system (copyright 1990, Gaussian, Inc.),
 the Gaussian 88(TM) system (copyright 1988, Gaussian, Inc.),
 the Gaussian 86(TM) system (copyright 1986, Carnegie Mellon
 University), and the Gaussian 82(TM) system (copyright 1983,
 Carnegie Mellon University). Gaussian is a federally registered
 trademark of Gaussian, Inc.
  
 This software contains proprietary and confidential information,
 including trade secrets, belonging to Gaussian, Inc.
  
 This software is provided under written license and may be
 used, copied, transmitted, or stored only in accord with that
 written license.
  
 The following legend is applicable only to US Government
 contracts under FAR:
  
                    RESTRICTED RIGHTS LEGEND
  
 Use, reproduction and disclosure by the US Government is
 subject to restrictions as set forth in subparagraphs (a)
 and (c) of the Commercial Computer Software - Restricted
 Rights clause in FAR 52.227-19.
  
 Gaussian, Inc.
 340 Quinnipiac St., Bldg. 40, Wallingford CT 06492
  
  
 ---------------------------------------------------------------
 Warning -- This program may not be used in any manner that
 competes with the business of Gaussian, Inc. or will provide
 assistance to any competitor of Gaussian, Inc.  The licensee
 of this program is prohibited from giving any competitor of
 Gaussian, Inc. access to this program.  By using this program,
 the user acknowledges that Gaussian, Inc. is engaged in the
 business of creating and licensing software in the field of
 computational chemistry and represents and warrants to the
 licensee that it is not a competitor of Gaussian, Inc. and that
 it will not use this program in any manner prohibited above.
 ---------------------------------------------------------------
  

 Cite this work as:
 Gaussian 16, Revision C.01,
 M. J. Frisch, G. W. Trucks, H. B. Schlegel, G. E. Scuseria, 
 M. A. Robb, J. R. Cheeseman, G. Scalmani, V. Barone, 
 G. A. Petersson, H. Nakatsuji, X. Li, M. Caricato, A. V. Marenich, 
 J. Bloino, B. G. Janesko, R. Gomperts, B. Mennucci, H. P. Hratchian, 
 J. V. Ortiz, A. F. Izmaylov, J. L. Sonnenberg, D. Williams-Young, 
 F. Ding, F. Lipparini, F. Egidi, J. Goings, B. Peng, A. Petrone, 
 T. Henderson, D. Ranasinghe, V. G. Zakrzewski, J. Gao, N. Rega, 
 G. Zheng, W. Liang, M. Hada, M. Ehara, K. Toyota, R. Fukuda, 
 J. Hasegawa, M. Ishida, T. Nakajima, Y. Honda, O. Kitao, H. Nakai, 
 T. Vreven, K. Throssell, J. A. Montgomery, Jr., J. E. Peralta, 
 F. Ogliaro, M. J. Bearpark, J. J. Heyd, E. N. Brothers, K. N. Kudin, 
 V. N. Staroverov, T. A. Keith, R. Kobayashi, J. Normand, 
 K. Raghavachari, A. P. Rendell, J. C. Burant, S. S. Iyengar, 
 J. Tomasi, M. Cossi, J. M. Millam, M. Klene, C. Adamo, R. Cammi, 
 J. W. Ochterski, R. L. Martin, K. Morokuma, O. Farkas, 
 J. B. Foresman, and D. J. Fox, Gaussian, Inc., Wallingford CT, 2019.
 
 ******************************************
 Gaussian 16:  ES64L-G16RevC.01  3-Jul-2019
                30-Jun-2024 
 ******************************************
 %nprocshared=48
 Will use up to   48 processors via shared memory.
 %mem=92GB
 ----------------------------------------------------------------------
 #p b3lyp def2tzvpp scf=maxcycle=128 nosymm scrf=(smd,solvent=propyleth
 anoate) empiricaldispersion=gd3bj
 ----------------------------------------------------------------------
 1/38=1,172=1/1;
 2/12=2,15=1,17=6,18=5,40=1/2;
 3/5=44,7=202,11=2,25=1,30=1,70=32201,72=169,74=-5,124=41/1,2,3;
 4//1;
 5/5=2,7=128,38=5,53=169/2;
 6/7=2,8=2,9=2,10=2,28=1/1;
 99/5=1,9=1/99;
 Leave Link    1 at Sun Jun 30 05:55:56 2024, MaxMem= 12348030976 cpu:               2.1 elap:               0.1
 (Enter /cm/shared/apps/spack/cpu/opt/spack/linux-centos8-zen/gcc-8.3.1/gaussian-16.C.01-po5bqktfeugvmjyga3v7eigbecnokxng/g16/l101.exe)
 -------------------
 Title Card Required
 -------------------
 Symbolic Z-matrix:
 Charge =  0 Multiplicity = 1
 C                     0.68286  -1.75456  -1.72217 
 C                    -0.31554  -1.11606  -0.84321 
 C                    -0.74636   0.22176  -1.29194 
 C                    -0.53698   0.59014  -2.582 
 C                     0.17506  -0.30046  -3.45192 
 N                     0.82844  -1.39374  -2.96195 
 H                    -0.84308   1.57974  -2.90747 
 C                     1.5989   -2.83865  -1.2623 
 C                     2.89968  -2.98312  -1.82039 
 C                     3.64916  -4.12744  -1.53152 
 C                     1.95731  -4.9326   -0.02036 
 C                     3.17631  -5.1084   -0.66114 
 H                     4.64935  -4.21809  -1.958 
 H                     3.78534  -5.98777  -0.44573 
 H                     1.56647  -5.62577   0.72443 
 C                     1.20854  -3.80572  -0.32885 
 C                     3.59534  -1.8931   -2.55869 
 C                     3.63264  -0.61288  -1.98969 
 C                     4.33911  -2.14639  -3.71613 
 C                     4.40117   0.3972   -2.56233 
 H                     3.06328  -0.42269  -1.0785 
 C                     5.11144  -1.1347   -4.29052 
 H                     4.31799  -3.14146  -4.16697 
 C                     5.15071   0.13468  -3.71263 
 H                     4.40975   1.38571  -2.09645 
 H                     5.68974  -1.34292  -5.19303 
 H                     5.76139   0.92115  -4.1601 
 F                     0.04002  -3.67076   0.30155 
 C                    -1.46136   1.11955  -0.33834 
 H                    -1.5321    2.13363  -0.75227 
 H                    -2.4794    0.73775  -0.14374 
 H                    -0.92361   1.15519   0.62069 
 C                     1.21721  -0.82446  -5.61645 
 C                    -0.31971   1.03872  -5.46594 
 C                     2.2625    0.15653  -6.13843 
 H                     0.64113  -1.24842  -6.45304 
 H                     1.68642  -1.62822  -5.04269 
 C                     0.78605   1.95117  -5.98581 
 H                    -0.87803   0.62173  -6.31831 
 H                    -1.02178   1.58064  -4.82731 
 H                     2.93048  -0.35194  -6.84662 
 H                     2.86418   0.52214  -5.28535 
 H                     0.3511    2.76527  -6.58081 
 H                     1.32814   2.3893   -5.12573 
 N                     0.29126  -0.08247  -4.75729 
 O                     1.66356   1.23555  -6.81722 
 I                    -2.26394  -2.25932  -0.96302 
 H                    -0.09137  -1.19853   0.22503 
 C                     2.36697   4.46921   5.69251 
 C                     2.75226   3.9524    4.4784 
 C                     1.95563   4.15462   3.31597 
 C                     0.7404    4.8857    3.4488 
 C                     0.3705    5.41563   4.71687 
 C                     1.16799   5.21498   5.81527 
 H                     2.98859   4.29886   6.57289 
 H                     3.67228   3.37221   4.40729 
 C                     2.31108   3.62265   2.03156 
 C                    -0.09643   5.05192   2.32208 
 H                    -0.56235   5.97755   4.79463 
 H                     0.87912   5.62019   6.78625 
 C                     0.23043   4.50891   1.09227 
 C                     1.45828   3.786     0.95465 
 H                    -1.03058   5.60747   2.4269 
 C                     3.58822   2.83935   1.9215 
 C                     3.58359   1.47132   1.71287 
 C                     4.83315   3.54367   2.01358 
 C                     4.80445   0.72697   1.64335 
 C                     6.04947   2.80901   1.92445 
 C                     4.90301   4.95828   2.15364 
 C                     6.0044    1.40597   1.75146 
 C                     7.29315   3.49588   2.00524 
 C                     6.11842   5.59637   2.22173 
 H                     3.9826    5.54123   2.19495 
 H                     6.939     0.84481   1.69853 
 C                     7.32741   4.85968   2.15422 
 H                     8.21488   2.91454   1.93989 
 H                     6.15343   6.68217   2.32328 
 H                     8.28341   5.3823    2.21268 
 S                     1.86331   2.88206  -0.54057 
 O                     3.22865   3.20054  -0.8439 
 O                     0.90269   3.1823   -1.55634 
 S                     2.01265   0.73591   1.27968 
 O                     1.07135   1.1076    2.30502 
 O                     2.17561  -0.67856   1.09302 
 N                     1.6833    1.36812  -0.1191 
 C                    -0.71465   4.71416   0.03423 
 C                    -1.59531   4.94677  -0.76705 
 C                     4.88481  -0.70234   1.51803 
 C                     5.11515  -1.89322   1.47251 
 C                     5.39318  -3.29952   1.44329 
 C                     6.37008  -3.83781   0.58075 
 C                     4.70297  -4.16863   2.30142 
 C                     6.64477  -5.2022    0.58617 
 C                     4.98495  -5.53216   2.30648 
 H                     3.94389  -3.75807   2.9666 
 C                     5.95609  -6.05195   1.45277 
 H                     7.40368  -5.60157  -0.08692 
 H                     4.43752  -6.19069   2.98276 
 H                     6.17961  -7.11959   1.45571 
 C                    -2.60435   5.17731  -1.7549 
 C                    -3.89756   5.61029  -1.39955 
 C                    -2.30961   4.96877  -3.11173 
 C                    -4.86325   5.83122  -2.37728 
 C                    -3.27965   5.19115  -4.08549 
 H                    -1.30557   4.63965  -3.38311 
 C                    -4.55556   5.62194  -3.72207 
 H                    -5.85938   6.16606  -2.08695 
 H                    -3.0364    5.02887  -5.13675 
 H                    -5.31583   5.79592  -4.4843 
 C                    -4.22577   5.83675   0.05448 
 F                    -4.02843   4.73868   0.79401 
 F                    -5.50177   6.19214   0.22522 
 F                    -3.47338   6.80078   0.59466 
 C                     7.1199   -2.92424  -0.35565 
 F                     6.30155  -2.26611  -1.17951 
 F                     7.98174  -3.6002   -1.12094 
 F                     7.82845  -2.0025    0.3069 
 N                    -4.52365  -3.50303  -0.71524 
 C                    -4.74587  -4.28359   0.3141 
 C                    -5.64949  -5.45737   0.02259 
 C                    -6.11151  -5.16368  -1.39926 
 C                    -5.25663  -3.96641  -1.81253 
 O                    -5.21234  -3.46723  -2.90815 
 O                    -4.25603  -4.12933   1.48102 
 H                    -5.05381  -6.37859   0.10802 
 H                    -6.4494   -5.50736   0.77297 
 H                    -7.16729  -4.8596   -1.44977 
 H                    -5.96529  -5.98574  -2.11117 
 C                    -4.43839  -0.89959   2.05007 
 C                    -4.2275    0.44565   2.2824 
 C                    -2.94516   0.88007   2.66925 
 C                    -1.95934  -0.06706   2.85863 
 C                    -2.23495  -1.44027   2.6242 
 N                    -3.46223  -1.82572   2.21367 
 H                    -0.96578   0.2606    3.15423 
 C                    -5.7681   -1.40948   1.59499 
 C                    -6.4159   -0.97425   0.41808 
 C                    -7.60546  -1.59776   0.01811 
 C                    -7.57013  -3.03207   1.95925 
 C                    -8.17528  -2.62027   0.77395 
 H                    -8.08618  -1.26688  -0.90396 
 H                    -9.10356  -3.09084   0.44578 
 H                    -7.99074  -3.81475   2.59162 
 C                    -6.38655  -2.41953   2.33958 
 C                    -5.87266   0.12108  -0.44619 
 C                    -6.1385    1.46305  -0.1436 
 C                    -5.14619  -0.1822   -1.60291 
 C                    -5.6461    2.48358  -0.95455 
 H                    -6.73999   1.70842   0.73463 
 C                    -4.64027   0.84186  -2.40684 
 H                    -4.98075  -1.2246   -1.88009 
 C                    -4.87839   2.17639  -2.07985 
 H                    -5.87002   3.52261  -0.70801 
 H                    -4.06      0.58692  -3.29622 
 H                    -4.48236   2.9791   -2.70635 
 F                    -5.8025   -2.82198   3.47279 
 C                    -2.64561   2.34369   2.80275 
 H                    -1.68991   2.51346   3.31552 
 H                    -2.5783    2.79076   1.79651 
 H                    -3.44828   2.87007   3.33881 
 C                    -1.63518  -3.80321   2.84521 
 C                     0.03141  -2.02867   3.33857 
 C                    -0.56485  -4.58158   3.59145 
 H                    -1.74559  -4.21124   1.82863 
 H                    -2.60034  -3.92213   3.36298 
 C                     1.11847  -3.03997   2.98055 
 H                     0.37027  -1.0728    2.92268 
 H                    -0.04635  -1.90536   4.43393 
 H                    -0.79473  -5.65358   3.53197 
 H                    -0.56245  -4.30077   4.66126 
 H                     1.50441  -2.82393   1.97512 
 H                     1.95125  -2.88311   3.68882 
 N                    -1.27011  -2.38901   2.78527 
 O                     0.701    -4.39208   3.01577 
 H                    -5.04046   1.15787   2.1617 
 H                    -3.82523  -3.14302   1.74119 
 
 ITRead=  0  0  0  0  0  0  0  0  0  0  0  0  0  0  0  0  0  0  0  0
 ITRead=  0  0  0  0  0  0  0  0  0  0  0  0  0  0  0  0  0  0  0  0
 ITRead=  0  0  0  0  0  0  0  0  0  0  0  0  0  0  0  0  0  0  0  0
 ITRead=  0  0  0  0  0  0  0  0  0  0  0  0  0  0  0  0  0  0  0  0
 ITRead=  0  0  0  0  0  0  0  0  0  0  0  0  0  0  0  0  0  0  0  0
 ITRead=  0  0  0  0  0  0  0  0  0  0  0  0  0  0  0  0  0  0  0  0
 ITRead=  0  0  0  0  0  0  0  0  0  0  0  0  0  0  0  0  0  0  0  0
 ITRead=  0  0  0  0  0  0  0  0  0  0  0  0  0  0  0  0  0  0  0  0
 ITRead=  0  0  0  0  0  0  0  0  0  0  0  0  0  0  0  0
 MicOpt= -1 -1 -1 -1 -1 -1 -1 -1 -1 -1 -1 -1 -1 -1 -1 -1 -1 -1 -1 -1
 MicOpt= -1 -1 -1 -1 -1 -1 -1 -1 -1 -1 -1 -1 -1 -1 -1 -1 -1 -1 -1 -1
 MicOpt= -1 -1 -1 -1 -1 -1 -1 -1 -1 -1 -1 -1 -1 -1 -1 -1 -1 -1 -1 -1
 MicOpt= -1 -1 -1 -1 -1 -1 -1 -1 -1 -1 -1 -1 -1 -1 -1 -1 -1 -1 -1 -1
 MicOpt= -1 -1 -1 -1 -1 -1 -1 -1 -1 -1 -1 -1 -1 -1 -1 -1 -1 -1 -1 -1
 MicOpt= -1 -1 -1 -1 -1 -1 -1 -1 -1 -1 -1 -1 -1 -1 -1 -1 -1 -1 -1 -1
 MicOpt= -1 -1 -1 -1 -1 -1 -1 -1 -1 -1 -1 -1 -1 -1 -1 -1 -1 -1 -1 -1
 MicOpt= -1 -1 -1 -1 -1 -1 -1 -1 -1 -1 -1 -1 -1 -1 -1 -1 -1 -1 -1 -1
 MicOpt= -1 -1 -1 -1 -1 -1 -1 -1 -1 -1 -1 -1 -1 -1 -1 -1
 NAtoms=    176 NQM=      176 NQMF=       0 NMMI=      0 NMMIF=      0
                NMic=       0 NMicF=      0.
                    Isotopes and Nuclear Properties:
 (Nuclear quadrupole moments (NQMom) in fm**2, nuclear magnetic moments (NMagM)
  in nuclear magnetons)

  Atom         1           2           3           4           5           6           7           8           9          10
 IAtWgt=          12          12          12          12          12          14           1          12          12          12
 AtmWgt=  12.0000000  12.0000000  12.0000000  12.0000000  12.0000000  14.0030740   1.0078250  12.0000000  12.0000000  12.0000000
 NucSpn=           0           0           0           0           0           2           1           0           0           0
 AtZEff=  -0.0000000  -0.0000000  -0.0000000  -0.0000000  -0.0000000  -0.0000000  -0.0000000  -0.0000000  -0.0000000  -0.0000000
 NQMom=    0.0000000   0.0000000   0.0000000   0.0000000   0.0000000   2.0440000   0.0000000   0.0000000   0.0000000   0.0000000
 NMagM=    0.0000000   0.0000000   0.0000000   0.0000000   0.0000000   0.4037610   2.7928460   0.0000000   0.0000000   0.0000000
 AtZNuc=   6.0000000   6.0000000   6.0000000   6.0000000   6.0000000   7.0000000   1.0000000   6.0000000   6.0000000   6.0000000

  Atom        11          12          13          14          15          16          17          18          19          20
 IAtWgt=          12          12           1           1           1          12          12          12          12          12
 AtmWgt=  12.0000000  12.0000000   1.0078250   1.0078250   1.0078250  12.0000000  12.0000000  12.0000000  12.0000000  12.0000000
 NucSpn=           0           0           1           1           1           0           0           0           0           0
 AtZEff=  -0.0000000  -0.0000000  -0.0000000  -0.0000000  -0.0000000  -0.0000000  -0.0000000  -0.0000000  -0.0000000  -0.0000000
 NQMom=    0.0000000   0.0000000   0.0000000   0.0000000   0.0000000   0.0000000   0.0000000   0.0000000   0.0000000   0.0000000
 NMagM=    0.0000000   0.0000000   2.7928460   2.7928460   2.7928460   0.0000000   0.0000000   0.0000000   0.0000000   0.0000000
 AtZNuc=   6.0000000   6.0000000   1.0000000   1.0000000   1.0000000   6.0000000   6.0000000   6.0000000   6.0000000   6.0000000

  Atom        21          22          23          24          25          26          27          28          29          30
 IAtWgt=           1          12           1          12           1           1           1          19          12           1
 AtmWgt=   1.0078250  12.0000000   1.0078250  12.0000000   1.0078250   1.0078250   1.0078250  18.9984033  12.0000000   1.0078250
 NucSpn=           1           0           1           0           1           1           1           1           0           1
 AtZEff=  -0.0000000  -0.0000000  -0.0000000  -0.0000000  -0.0000000  -0.0000000  -0.0000000  -0.0000000  -0.0000000  -0.0000000
 NQMom=    0.0000000   0.0000000   0.0000000   0.0000000   0.0000000   0.0000000   0.0000000   0.0000000   0.0000000   0.0000000
 NMagM=    2.7928460   0.0000000   2.7928460   0.0000000   2.7928460   2.7928460   2.7928460   2.6288670   0.0000000   2.7928460
 AtZNuc=   1.0000000   6.0000000   1.0000000   6.0000000   1.0000000   1.0000000   1.0000000   9.0000000   6.0000000   1.0000000

  Atom        31          32          33          34          35          36          37          38          39          40
 IAtWgt=           1           1          12          12          12           1           1          12           1           1
 AtmWgt=   1.0078250   1.0078250  12.0000000  12.0000000  12.0000000   1.0078250   1.0078250  12.0000000   1.0078250   1.0078250
 NucSpn=           1           1           0           0           0           1           1           0           1           1
 AtZEff=  -0.0000000  -0.0000000  -0.0000000  -0.0000000  -0.0000000  -0.0000000  -0.0000000  -0.0000000  -0.0000000  -0.0000000
 NQMom=    0.0000000   0.0000000   0.0000000   0.0000000   0.0000000   0.0000000   0.0000000   0.0000000   0.0000000   0.0000000
 NMagM=    2.7928460   2.7928460   0.0000000   0.0000000   0.0000000   2.7928460   2.7928460   0.0000000   2.7928460   2.7928460
 AtZNuc=   1.0000000   1.0000000   6.0000000   6.0000000   6.0000000   1.0000000   1.0000000   6.0000000   1.0000000   1.0000000

  Atom        41          42          43          44          45          46          47          48          49          50
 IAtWgt=           1           1           1           1          14          16         127           1          12          12
 AtmWgt=   1.0078250   1.0078250   1.0078250   1.0078250  14.0030740  15.9949146 126.9004000   1.0078250  12.0000000  12.0000000
 NucSpn=           1           1           1           1           2           0           5           1           0           0
 AtZEff=  -0.0000000  -0.0000000  -0.0000000  -0.0000000  -0.0000000  -0.0000000  -0.0000000  -0.0000000  -0.0000000  -0.0000000
 NQMom=    0.0000000   0.0000000   0.0000000   0.0000000   2.0440000   0.0000000 -71.0000000   0.0000000   0.0000000   0.0000000
 NMagM=    2.7928460   2.7928460   2.7928460   2.7928460   0.4037610   0.0000000   2.8132800   2.7928460   0.0000000   0.0000000
 AtZNuc=   1.0000000   1.0000000   1.0000000   1.0000000   7.0000000   8.0000000  53.0000000   1.0000000   6.0000000   6.0000000

  Atom        51          52          53          54          55          56          57          58          59          60
 IAtWgt=          12          12          12          12           1           1          12          12           1           1
 AtmWgt=  12.0000000  12.0000000  12.0000000  12.0000000   1.0078250   1.0078250  12.0000000  12.0000000   1.0078250   1.0078250
 NucSpn=           0           0           0           0           1           1           0           0           1           1
 AtZEff=  -0.0000000  -0.0000000  -0.0000000  -0.0000000  -0.0000000  -0.0000000  -0.0000000  -0.0000000  -0.0000000  -0.0000000
 NQMom=    0.0000000   0.0000000   0.0000000   0.0000000   0.0000000   0.0000000   0.0000000   0.0000000   0.0000000   0.0000000
 NMagM=    0.0000000   0.0000000   0.0000000   0.0000000   2.7928460   2.7928460   0.0000000   0.0000000   2.7928460   2.7928460
 AtZNuc=   6.0000000   6.0000000   6.0000000   6.0000000   1.0000000   1.0000000   6.0000000   6.0000000   1.0000000   1.0000000

  Atom        61          62          63          64          65          66          67          68          69          70
 IAtWgt=          12          12           1          12          12          12          12          12          12          12
 AtmWgt=  12.0000000  12.0000000   1.0078250  12.0000000  12.0000000  12.0000000  12.0000000  12.0000000  12.0000000  12.0000000
 NucSpn=           0           0           1           0           0           0           0           0           0           0
 AtZEff=  -0.0000000  -0.0000000  -0.0000000  -0.0000000  -0.0000000  -0.0000000  -0.0000000  -0.0000000  -0.0000000  -0.0000000
 NQMom=    0.0000000   0.0000000   0.0000000   0.0000000   0.0000000   0.0000000   0.0000000   0.0000000   0.0000000   0.0000000
 NMagM=    0.0000000   0.0000000   2.7928460   0.0000000   0.0000000   0.0000000   0.0000000   0.0000000   0.0000000   0.0000000
 AtZNuc=   6.0000000   6.0000000   1.0000000   6.0000000   6.0000000   6.0000000   6.0000000   6.0000000   6.0000000   6.0000000

  Atom        71          72          73          74          75          76          77          78          79          80
 IAtWgt=          12          12           1           1          12           1           1           1          32          16
 AtmWgt=  12.0000000  12.0000000   1.0078250   1.0078250  12.0000000   1.0078250   1.0078250   1.0078250  31.9720718  15.9949146
 NucSpn=           0           0           1           1           0           1           1           1           0           0
 AtZEff=  -0.0000000  -0.0000000  -0.0000000  -0.0000000  -0.0000000  -0.0000000  -0.0000000  -0.0000000  -0.0000000  -0.0000000
 NQMom=    0.0000000   0.0000000   0.0000000   0.0000000   0.0000000   0.0000000   0.0000000   0.0000000   0.0000000   0.0000000
 NMagM=    0.0000000   0.0000000   2.7928460   2.7928460   0.0000000   2.7928460   2.7928460   2.7928460   0.0000000   0.0000000
 AtZNuc=   6.0000000   6.0000000   1.0000000   1.0000000   6.0000000   1.0000000   1.0000000   1.0000000  16.0000000   8.0000000

  Atom        81          82          83          84          85          86          87          88          89          90
 IAtWgt=          16          32          16          16          14          12          12          12          12          12
 AtmWgt=  15.9949146  31.9720718  15.9949146  15.9949146  14.0030740  12.0000000  12.0000000  12.0000000  12.0000000  12.0000000
 NucSpn=           0           0           0           0           2           0           0           0           0           0
 AtZEff=  -0.0000000  -0.0000000  -0.0000000  -0.0000000  -0.0000000  -0.0000000  -0.0000000  -0.0000000  -0.0000000  -0.0000000
 NQMom=    0.0000000   0.0000000   0.0000000   0.0000000   2.0440000   0.0000000   0.0000000   0.0000000   0.0000000   0.0000000
 NMagM=    0.0000000   0.0000000   0.0000000   0.0000000   0.4037610   0.0000000   0.0000000   0.0000000   0.0000000   0.0000000
 AtZNuc=   8.0000000  16.0000000   8.0000000   8.0000000   7.0000000   6.0000000   6.0000000   6.0000000   6.0000000   6.0000000

  Atom        91          92          93          94          95          96          97          98          99         100
 IAtWgt=          12          12          12          12           1          12           1           1           1          12
 AtmWgt=  12.0000000  12.0000000  12.0000000  12.0000000   1.0078250  12.0000000   1.0078250   1.0078250   1.0078250  12.0000000
 NucSpn=           0           0           0           0           1           0           1           1           1           0
 AtZEff=  -0.0000000  -0.0000000  -0.0000000  -0.0000000  -0.0000000  -0.0000000  -0.0000000  -0.0000000  -0.0000000  -0.0000000
 NQMom=    0.0000000   0.0000000   0.0000000   0.0000000   0.0000000   0.0000000   0.0000000   0.0000000   0.0000000   0.0000000
 NMagM=    0.0000000   0.0000000   0.0000000   0.0000000   2.7928460   0.0000000   2.7928460   2.7928460   2.7928460   0.0000000
 AtZNuc=   6.0000000   6.0000000   6.0000000   6.0000000   1.0000000   6.0000000   1.0000000   1.0000000   1.0000000   6.0000000

  Atom       101         102         103         104         105         106         107         108         109         110
 IAtWgt=          12          12          12          12           1          12           1           1           1          12
 AtmWgt=  12.0000000  12.0000000  12.0000000  12.0000000   1.0078250  12.0000000   1.0078250   1.0078250   1.0078250  12.0000000
 NucSpn=           0           0           0           0           1           0           1           1           1           0
 AtZEff=  -0.0000000  -0.0000000  -0.0000000  -0.0000000  -0.0000000  -0.0000000  -0.0000000  -0.0000000  -0.0000000  -0.0000000
 NQMom=    0.0000000   0.0000000   0.0000000   0.0000000   0.0000000   0.0000000   0.0000000   0.0000000   0.0000000   0.0000000
 NMagM=    0.0000000   0.0000000   0.0000000   0.0000000   2.7928460   0.0000000   2.7928460   2.7928460   2.7928460   0.0000000
 AtZNuc=   6.0000000   6.0000000   6.0000000   6.0000000   1.0000000   6.0000000   1.0000000   1.0000000   1.0000000   6.0000000

  Atom       111         112         113         114         115         116         117         118         119         120
 IAtWgt=          19          19          19          12          19          19          19          14          12          12
 AtmWgt=  18.9984033  18.9984033  18.9984033  12.0000000  18.9984033  18.9984033  18.9984033  14.0030740  12.0000000  12.0000000
 NucSpn=           1           1           1           0           1           1           1           2           0           0
 AtZEff=  -0.0000000  -0.0000000  -0.0000000  -0.0000000  -0.0000000  -0.0000000  -0.0000000  -0.0000000  -0.0000000  -0.0000000
 NQMom=    0.0000000   0.0000000   0.0000000   0.0000000   0.0000000   0.0000000   0.0000000   2.0440000   0.0000000   0.0000000
 NMagM=    2.6288670   2.6288670   2.6288670   0.0000000   2.6288670   2.6288670   2.6288670   0.4037610   0.0000000   0.0000000
 AtZNuc=   9.0000000   9.0000000   9.0000000   6.0000000   9.0000000   9.0000000   9.0000000   7.0000000   6.0000000   6.0000000

  Atom       121         122         123         124         125         126         127         128         129         130
 IAtWgt=          12          12          16          16           1           1           1           1          12          12
 AtmWgt=  12.0000000  12.0000000  15.9949146  15.9949146   1.0078250   1.0078250   1.0078250   1.0078250  12.0000000  12.0000000
 NucSpn=           0           0           0           0           1           1           1           1           0           0
 AtZEff=  -0.0000000  -0.0000000  -0.0000000  -0.0000000  -0.0000000  -0.0000000  -0.0000000  -0.0000000  -0.0000000  -0.0000000
 NQMom=    0.0000000   0.0000000   0.0000000   0.0000000   0.0000000   0.0000000   0.0000000   0.0000000   0.0000000   0.0000000
 NMagM=    0.0000000   0.0000000   0.0000000   0.0000000   2.7928460   2.7928460   2.7928460   2.7928460   0.0000000   0.0000000
 AtZNuc=   6.0000000   6.0000000   8.0000000   8.0000000   1.0000000   1.0000000   1.0000000   1.0000000   6.0000000   6.0000000

  Atom       131         132         133         134         135         136         137         138         139         140
 IAtWgt=          12          12          12          14           1          12          12          12          12          12
 AtmWgt=  12.0000000  12.0000000  12.0000000  14.0030740   1.0078250  12.0000000  12.0000000  12.0000000  12.0000000  12.0000000
 NucSpn=           0           0           0           2           1           0           0           0           0           0
 AtZEff=  -0.0000000  -0.0000000  -0.0000000  -0.0000000  -0.0000000  -0.0000000  -0.0000000  -0.0000000  -0.0000000  -0.0000000
 NQMom=    0.0000000   0.0000000   0.0000000   2.0440000   0.0000000   0.0000000   0.0000000   0.0000000   0.0000000   0.0000000
 NMagM=    0.0000000   0.0000000   0.0000000   0.4037610   2.7928460   0.0000000   0.0000000   0.0000000   0.0000000   0.0000000
 AtZNuc=   6.0000000   6.0000000   6.0000000   7.0000000   1.0000000   6.0000000   6.0000000   6.0000000   6.0000000   6.0000000

  Atom       141         142         143         144         145         146         147         148         149         150
 IAtWgt=           1           1           1          12          12          12          12          12           1          12
 AtmWgt=   1.0078250   1.0078250   1.0078250  12.0000000  12.0000000  12.0000000  12.0000000  12.0000000   1.0078250  12.0000000
 NucSpn=           1           1           1           0           0           0           0           0           1           0
 AtZEff=  -0.0000000  -0.0000000  -0.0000000  -0.0000000  -0.0000000  -0.0000000  -0.0000000  -0.0000000  -0.0000000  -0.0000000
 NQMom=    0.0000000   0.0000000   0.0000000   0.0000000   0.0000000   0.0000000   0.0000000   0.0000000   0.0000000   0.0000000
 NMagM=    2.7928460   2.7928460   2.7928460   0.0000000   0.0000000   0.0000000   0.0000000   0.0000000   2.7928460   0.0000000
 AtZNuc=   1.0000000   1.0000000   1.0000000   6.0000000   6.0000000   6.0000000   6.0000000   6.0000000   1.0000000   6.0000000

  Atom       151         152         153         154         155         156         157         158         159         160
 IAtWgt=           1          12           1           1           1          19          12           1           1           1
 AtmWgt=   1.0078250  12.0000000   1.0078250   1.0078250   1.0078250  18.9984033  12.0000000   1.0078250   1.0078250   1.0078250
 NucSpn=           1           0           1           1           1           1           0           1           1           1
 AtZEff=  -0.0000000  -0.0000000  -0.0000000  -0.0000000  -0.0000000  -0.0000000  -0.0000000  -0.0000000  -0.0000000  -0.0000000
 NQMom=    0.0000000   0.0000000   0.0000000   0.0000000   0.0000000   0.0000000   0.0000000   0.0000000   0.0000000   0.0000000
 NMagM=    2.7928460   0.0000000   2.7928460   2.7928460   2.7928460   2.6288670   0.0000000   2.7928460   2.7928460   2.7928460
 AtZNuc=   1.0000000   6.0000000   1.0000000   1.0000000   1.0000000   9.0000000   6.0000000   1.0000000   1.0000000   1.0000000

  Atom       161         162         163         164         165         166         167         168         169         170
 IAtWgt=          12          12          12           1           1          12           1           1           1           1
 AtmWgt=  12.0000000  12.0000000  12.0000000   1.0078250   1.0078250  12.0000000   1.0078250   1.0078250   1.0078250   1.0078250
 NucSpn=           0           0           0           1           1           0           1           1           1           1
 AtZEff=  -0.0000000  -0.0000000  -0.0000000  -0.0000000  -0.0000000  -0.0000000  -0.0000000  -0.0000000  -0.0000000  -0.0000000
 NQMom=    0.0000000   0.0000000   0.0000000   0.0000000   0.0000000   0.0000000   0.0000000   0.0000000   0.0000000   0.0000000
 NMagM=    0.0000000   0.0000000   0.0000000   2.7928460   2.7928460   0.0000000   2.7928460   2.7928460   2.7928460   2.7928460
 AtZNuc=   6.0000000   6.0000000   6.0000000   1.0000000   1.0000000   6.0000000   1.0000000   1.0000000   1.0000000   1.0000000

  Atom       171         172         173         174         175         176
 IAtWgt=           1           1          14          16           1           1
 AtmWgt=   1.0078250   1.0078250  14.0030740  15.9949146   1.0078250   1.0078250
 NucSpn=           1           1           2           0           1           1
 AtZEff=  -0.0000000  -0.0000000  -0.0000000  -0.0000000  -0.0000000  -0.0000000
 NQMom=    0.0000000   0.0000000   2.0440000   0.0000000   0.0000000   0.0000000
 NMagM=    2.7928460   2.7928460   0.4037610   0.0000000   2.7928460   2.7928460
 AtZNuc=   1.0000000   1.0000000   7.0000000   8.0000000   1.0000000   1.0000000
 Leave Link  101 at Sun Jun 30 05:55:56 2024, MaxMem= 12348030976 cpu:               3.5 elap:               0.1
 (Enter /cm/shared/apps/spack/cpu/opt/spack/linux-centos8-zen/gcc-8.3.1/gaussian-16.C.01-po5bqktfeugvmjyga3v7eigbecnokxng/g16/l202.exe)
 Symmetry turned off by external request.
 Stoichiometry    C86H65F8IN6O8S2
 Framework group  C1[X(C86H65F8IN6O8S2)]
 Deg. of freedom   522
 Full point group                 C1      NOp   1
                          Input orientation:                          
 ---------------------------------------------------------------------
 Center     Atomic      Atomic             Coordinates (Angstroms)
 Number     Number       Type             X           Y           Z
 ---------------------------------------------------------------------
      1          6           0        0.682859   -1.754562   -1.722174
      2          6           0       -0.315539   -1.116056   -0.843209
      3          6           0       -0.746361    0.221757   -1.291943
      4          6           0       -0.536976    0.590140   -2.581995
      5          6           0        0.175061   -0.300460   -3.451919
      6          7           0        0.828435   -1.393744   -2.961947
      7          1           0       -0.843076    1.579743   -2.907468
      8          6           0        1.598901   -2.838653   -1.262300
      9          6           0        2.899684   -2.983124   -1.820391
     10          6           0        3.649163   -4.127440   -1.531522
     11          6           0        1.957306   -4.932597   -0.020361
     12          6           0        3.176313   -5.108402   -0.661143
     13          1           0        4.649346   -4.218093   -1.958000
     14          1           0        3.785343   -5.987770   -0.445729
     15          1           0        1.566466   -5.625772    0.724426
     16          6           0        1.208541   -3.805723   -0.328853
     17          6           0        3.595336   -1.893098   -2.558687
     18          6           0        3.632643   -0.612876   -1.989692
     19          6           0        4.339111   -2.146390   -3.716132
     20          6           0        4.401165    0.397201   -2.562329
     21          1           0        3.063280   -0.422685   -1.078500
     22          6           0        5.111441   -1.134704   -4.290517
     23          1           0        4.317986   -3.141462   -4.166971
     24          6           0        5.150707    0.134681   -3.712628
     25          1           0        4.409747    1.385708   -2.096454
     26          1           0        5.689738   -1.342922   -5.193027
     27          1           0        5.761387    0.921146   -4.160099
     28          9           0        0.040018   -3.670761    0.301551
     29          6           0       -1.461358    1.119548   -0.338337
     30          1           0       -1.532102    2.133632   -0.752265
     31          1           0       -2.479395    0.737754   -0.143742
     32          1           0       -0.923608    1.155188    0.620690
     33          6           0        1.217209   -0.824460   -5.616453
     34          6           0       -0.319705    1.038722   -5.465944
     35          6           0        2.262495    0.156527   -6.138428
     36          1           0        0.641130   -1.248424   -6.453042
     37          1           0        1.686416   -1.628221   -5.042689
     38          6           0        0.786048    1.951166   -5.985808
     39          1           0       -0.878031    0.621730   -6.318314
     40          1           0       -1.021776    1.580637   -4.827312
     41          1           0        2.930476   -0.351943   -6.846623
     42          1           0        2.864181    0.522144   -5.285348
     43          1           0        0.351095    2.765273   -6.580806
     44          1           0        1.328144    2.389303   -5.125731
     45          7           0        0.291264   -0.082469   -4.757294
     46          8           0        1.663561    1.235547   -6.817219
     47         53           0       -2.263935   -2.259319   -0.963017
     48          1           0       -0.091372   -1.198531    0.225030
     49          6           0        2.366971    4.469205    5.692505
     50          6           0        2.752261    3.952403    4.478400
     51          6           0        1.955632    4.154621    3.315970
     52          6           0        0.740398    4.885704    3.448800
     53          6           0        0.370498    5.415625    4.716875
     54          6           0        1.167992    5.214976    5.815266
     55          1           0        2.988591    4.298856    6.572894
     56          1           0        3.672280    3.372206    4.407292
     57          6           0        2.311082    3.622650    2.031558
     58          6           0       -0.096428    5.051918    2.322077
     59          1           0       -0.562347    5.977548    4.794630
     60          1           0        0.879122    5.620186    6.786253
     61          6           0        0.230431    4.508911    1.092271
     62          6           0        1.458278    3.786003    0.954649
     63          1           0       -1.030583    5.607474    2.426901
     64          6           0        3.588222    2.839350    1.921496
     65          6           0        3.583590    1.471318    1.712870
     66          6           0        4.833149    3.543673    2.013577
     67          6           0        4.804445    0.726970    1.643350
     68          6           0        6.049470    2.809006    1.924451
     69          6           0        4.903008    4.958282    2.153644
     70          6           0        6.004399    1.405967    1.751460
     71          6           0        7.293150    3.495877    2.005239
     72          6           0        6.118416    5.596374    2.221731
     73          1           0        3.982602    5.541228    2.194953
     74          1           0        6.938998    0.844805    1.698529
     75          6           0        7.327411    4.859680    2.154218
     76          1           0        8.214880    2.914542    1.939889
     77          1           0        6.153434    6.682172    2.323275
     78          1           0        8.283414    5.382296    2.212679
     79         16           0        1.863308    2.882058   -0.540567
     80          8           0        3.228647    3.200536   -0.843896
     81          8           0        0.902691    3.182297   -1.556340
     82         16           0        2.012650    0.735906    1.279680
     83          8           0        1.071349    1.107595    2.305024
     84          8           0        2.175612   -0.678563    1.093015
     85          7           0        1.683299    1.368119   -0.119104
     86          6           0       -0.714651    4.714158    0.034226
     87          6           0       -1.595307    4.946774   -0.767048
     88          6           0        4.884814   -0.702342    1.518033
     89          6           0        5.115154   -1.893218    1.472512
     90          6           0        5.393175   -3.299517    1.443294
     91          6           0        6.370084   -3.837813    0.580750
     92          6           0        4.702967   -4.168632    2.301417
     93          6           0        6.644774   -5.202200    0.586168
     94          6           0        4.984952   -5.532157    2.306477
     95          1           0        3.943892   -3.758067    2.966604
     96          6           0        5.956092   -6.051951    1.452769
     97          1           0        7.403676   -5.601565   -0.086923
     98          1           0        4.437517   -6.190695    2.982759
     99          1           0        6.179612   -7.119591    1.455708
    100          6           0       -2.604345    5.177309   -1.754901
    101          6           0       -3.897564    5.610292   -1.399550
    102          6           0       -2.309609    4.968767   -3.111729
    103          6           0       -4.863249    5.831224   -2.377276
    104          6           0       -3.279645    5.191146   -4.085493
    105          1           0       -1.305566    4.639650   -3.383108
    106          6           0       -4.555555    5.621935   -3.722070
    107          1           0       -5.859382    6.166060   -2.086954
    108          1           0       -3.036403    5.028869   -5.136751
    109          1           0       -5.315830    5.795918   -4.484299
    110          6           0       -4.225769    5.836753    0.054483
    111          9           0       -4.028433    4.738678    0.794009
    112          9           0       -5.501766    6.192142    0.225223
    113          9           0       -3.473381    6.800777    0.594664
    114          6           0        7.119896   -2.924242   -0.355647
    115          9           0        6.301547   -2.266107   -1.179505
    116          9           0        7.981735   -3.600195   -1.120939
    117          9           0        7.828450   -2.002501    0.306899
    118          7           0       -4.523653   -3.503028   -0.715239
    119          6           0       -4.745869   -4.283587    0.314103
    120          6           0       -5.649492   -5.457371    0.022594
    121          6           0       -6.111515   -5.163676   -1.399258
    122          6           0       -5.256634   -3.966409   -1.812528
    123          8           0       -5.212340   -3.467231   -2.908152
    124          8           0       -4.256035   -4.129329    1.481020
    125          1           0       -5.053807   -6.378588    0.108018
    126          1           0       -6.449398   -5.507355    0.772965
    127          1           0       -7.167289   -4.859602   -1.449774
    128          1           0       -5.965292   -5.985741   -2.111170
    129          6           0       -4.438392   -0.899591    2.050072
    130          6           0       -4.227504    0.445653    2.282403
    131          6           0       -2.945157    0.880071    2.669247
    132          6           0       -1.959336   -0.067055    2.858630
    133          6           0       -2.234950   -1.440273    2.624198
    134          7           0       -3.462234   -1.825724    2.213673
    135          1           0       -0.965780    0.260597    3.154232
    136          6           0       -5.768095   -1.409484    1.594992
    137          6           0       -6.415897   -0.974253    0.418076
    138          6           0       -7.605461   -1.597756    0.018114
    139          6           0       -7.570131   -3.032068    1.959249
    140          6           0       -8.175277   -2.620272    0.773954
    141          1           0       -8.086177   -1.266882   -0.903957
    142          1           0       -9.103555   -3.090839    0.445777
    143          1           0       -7.990741   -3.814747    2.591615
    144          6           0       -6.386548   -2.419529    2.339582
    145          6           0       -5.872660    0.121077   -0.446186
    146          6           0       -6.138501    1.463049   -0.143596
    147          6           0       -5.146190   -0.182198   -1.602913
    148          6           0       -5.646103    2.483576   -0.954546
    149          1           0       -6.739987    1.708420    0.734625
    150          6           0       -4.640266    0.841859   -2.406839
    151          1           0       -4.980753   -1.224598   -1.880085
    152          6           0       -4.878392    2.176391   -2.079849
    153          1           0       -5.870022    3.522606   -0.708010
    154          1           0       -4.059998    0.586922   -3.296216
    155          1           0       -4.482360    2.979096   -2.706353
    156          9           0       -5.802501   -2.821975    3.472792
    157          6           0       -2.645614    2.343694    2.802754
    158          1           0       -1.689910    2.513462    3.315520
    159          1           0       -2.578300    2.790761    1.796505
    160          1           0       -3.448277    2.870069    3.338808
    161          6           0       -1.635181   -3.803208    2.845209
    162          6           0        0.031414   -2.028672    3.338570
    163          6           0       -0.564846   -4.581581    3.591448
    164          1           0       -1.745593   -4.211241    1.828632
    165          1           0       -2.600339   -3.922128    3.362982
    166          6           0        1.118465   -3.039972    2.980550
    167          1           0        0.370265   -1.072800    2.922677
    168          1           0       -0.046353   -1.905359    4.433933
    169          1           0       -0.794725   -5.653579    3.531970
    170          1           0       -0.562453   -4.300773    4.661264
    171          1           0        1.504412   -2.823930    1.975121
    172          1           0        1.951245   -2.883109    3.688821
    173          7           0       -1.270107   -2.389008    2.785270
    174          8           0        0.700995   -4.392081    3.015773
    175          1           0       -5.040457    1.157866    2.161704
    176          1           0       -3.825233   -3.143024    1.741194
 ---------------------------------------------------------------------
 Rotational constants (GHZ):           0.0174395           0.0134275           0.0109148
 Leave Link  202 at Sun Jun 30 05:55:56 2024, MaxMem= 12348030976 cpu:               1.7 elap:               0.1
 (Enter /cm/shared/apps/spack/cpu/opt/spack/linux-centos8-zen/gcc-8.3.1/gaussian-16.C.01-po5bqktfeugvmjyga3v7eigbecnokxng/g16/l301.exe)
 Standard basis: def2TZVPP (5D, 7F)
 Ernie: Thresh=  0.10000D-02 Tol=  0.10000D-05 Strict=F.
  4392 basis functions,  6860 primitive gaussians,  5018 cartesian basis functions
   408 alpha electrons      408 beta electrons
       nuclear repulsion energy     27945.1692178695 Hartrees.
 IExCor=  402 DFT=T Ex+Corr=B3LYP ExCW=0 ScaHFX=  0.200000
 ScaDFX=  0.800000  0.720000  1.000000  0.810000 ScalE2=  1.000000  1.000000
 IRadAn=      5 IRanWt=     -1 IRanGd=            0 ICorTp=0 IEmpDi=141
 NAtoms=  176 NActive=  176 NUniq=  176 SFac= 1.00D+00 NAtFMM=   60 NAOKFM=T Big=T
 Integral buffers will be    131072 words long.
 Raffenetti 2 integral format.
 Two-electron integral symmetry is turned off.
 R6Disp:  Grimme-D3(BJ) Dispersion energy=       -0.5924841790 Hartrees.
 Nuclear repulsion after empirical dispersion term =    27944.5767336905 Hartrees.
 ------------------------------------------------------------------------------
 Polarizable Continuum Model (PCM)
 =================================
 Model                : PCM.
 Atomic radii         : SMD-Coulomb.
 Polarization charges : Total charges.
 Charge compensation  : None.
 Solution method      : On-the-fly selection.
 Cavity type          : VdW (van der Waals Surface) (Alpha=1.000).
 Cavity algorithm     : GePol (No added spheres)
                        Default sphere list used, NSphG=  176.
                        Lebedev-Laikov grids with approx.  5.0 points / Ang**2.
                        Smoothing algorithm: York/Karplus (Gamma=1.0000).
                        Polarization charges: spherical gaussians, with
                                              point-specific exponents (IZeta= 3).
                        Self-potential: point-specific (ISelfS= 7).
                        Self-field    : sphere-specific E.n sum rule (ISelfD= 2).
 Solvent              : PropylEthanoate, Eps=   5.520500 Eps(inf)=   1.916010
 ------------------------------------------------------------------------------
 GePol: Number of generator spheres                  =     176
 GePol: Total number of spheres                      =     176
 GePol: Number of exposed spheres                    =     175 ( 99.43%)
 GePol: Number of points                             =   12069
 GePol: Average weight of points                     =       0.11
 GePol: Minimum weight of points                     =   0.14D-11
 GePol: Maximum weight of points                     =    0.21501
 GePol: Number of points with low weight             =     857
 GePol: Fraction of low-weight points (<1% of avg)   =       7.10%
 GePol: Cavity surface area                          =   1298.023 Ang**2
 GePol: Cavity volume                                =   1545.047 Ang**3
 ------------------------------------------------------------------------------
 Atomic radii for non-electrostatic terms: SMD-CDS.
 ------------------------------------------------------------------------------
 PCM non-electrostatic energy =        -0.0319170427 Hartrees.
 Nuclear repulsion after PCM non-electrostatic terms =    27944.5448166478 Hartrees.
 Leave Link  301 at Sun Jun 30 05:55:57 2024, MaxMem= 12348030976 cpu:              12.6 elap:               0.4
 (Enter /cm/shared/apps/spack/cpu/opt/spack/linux-centos8-zen/gcc-8.3.1/gaussian-16.C.01-po5bqktfeugvmjyga3v7eigbecnokxng/g16/l302.exe)
 NPDir=0 NMtPBC=     1 NCelOv=     1 NCel=       1 NClECP=     1 NCelD=      1
         NCelK=      1 NCelE2=     1 NClLst=     1 CellRange=     0.0.
 One-electron integrals computed using PRISM.
   1 Symmetry operations used in ECPInt.
 ECPInt:  NShTT= 1316253 NPrTT= 3826671 LenC2=  764955 LenP2D= 1391464.
 LDataN:  DoStor=T MaxTD1= 7 Len=  274
 Number of processors reduced to  14 by ecpmxn.
 NBasis=  4392 RedAO= T EigKep=  1.74D-06  NBF=  4392
 NBsUse=  4392 1.00D-06 EigRej= -1.00D+00 NBFU=  4392
 Precomputing XC quadrature grid using
 IXCGrd= 4 IRadAn=           5 IRanWt=          -1 IRanGd=           0 AccXCQ= 0.00D+00.
 Defaulting to unpruned grid for atomic number  53.
 Generated NRdTot=       0 NPtTot=           0 NUsed=           0 NTot=          32
 NSgBfM=  3632  3576  3595  3618  3632 MxSgAt=   176 MxSgA2=   176.
 Leave Link  302 at Sun Jun 30 05:56:49 2024, MaxMem= 12348030976 cpu:            2360.4 elap:              51.9
 (Enter /cm/shared/apps/spack/cpu/opt/spack/linux-centos8-zen/gcc-8.3.1/gaussian-16.C.01-po5bqktfeugvmjyga3v7eigbecnokxng/g16/l303.exe)
 DipDrv:  MaxL=1.
 Leave Link  303 at Sun Jun 30 05:56:51 2024, MaxMem= 12348030976 cpu:              94.9 elap:               2.5
 (Enter /cm/shared/apps/spack/cpu/opt/spack/linux-centos8-zen/gcc-8.3.1/gaussian-16.C.01-po5bqktfeugvmjyga3v7eigbecnokxng/g16/l401.exe)
 ExpMin= 7.49D-02 ExpMax= 6.07D+04 ExpMxC= 2.07D+03 IAcc=3 IRadAn=         5 AccDes= 0.00D+00
 Harris functional with IExCor=  402 and IRadAn=       5 diagonalized for initial guess.
 HarFok:  IExCor=  402 AccDes= 0.00D+00 IRadAn=         5 IDoV= 1 UseB2=F ITyADJ=14
 ICtDFT=  3500011 ScaDFX=  1.000000  1.000000  1.000000  1.000000
 Defaulting to unpruned grid for atomic number  53.
 FoFCou: FMM=F IPFlag=           0 FMFlag=      100000 FMFlg1=        2001
         NFxFlg=           0 DoJE=T BraDBF=F KetDBF=T FulRan=T
         wScrn=  0.000000 ICntrl=       500 IOpCl=  0 I1Cent=   200000004 NGrid=           0
         NMat0=    1 NMatS0=      1 NMatT0=    0 NMatD0=    1 NMtDS0=    0 NMtDT0=    0
 Symmetry not used in FoFCou.
 Harris En= -6142.00624160820    
 JPrj=0 DoOrth=F DoCkMO=F.
 Leave Link  401 at Sun Jun 30 05:57:42 2024, MaxMem= 12348030976 cpu:            2422.0 elap:              50.9
 (Enter /cm/shared/apps/spack/cpu/opt/spack/linux-centos8-zen/gcc-8.3.1/gaussian-16.C.01-po5bqktfeugvmjyga3v7eigbecnokxng/g16/l502.exe)
 Two-electron integral symmetry not used.
 Closed shell SCF:
 Using DIIS extrapolation, IDIIS=  1040.
 NGot= 12348030976 LenX= 12297394704 LenY= 12272209362
 Requested convergence on RMS density matrix=1.00D-08 within 128 cycles.
 Requested convergence on MAX density matrix=1.00D-06.
 Requested convergence on             energy=1.00D-06.
 No special actions if energy rises.
 Fock matrices will be formed incrementally for  20 cycles.

 Cycle   1  Pass 1  IDiag  1:
 FoFJK:  IHMeth= 1 ICntrl=       0 DoSepK=F KAlg= 0 I1Cent=           0 FoldK=F
 IRaf= 520000000 NMat=       1 IRICut=       1 DoRegI=T DoRafI=F ISym2E= 0 IDoP0=0 IntGTp=1.
 FoFCou: FMM=T IPFlag=           0 FMFlag=      100000 FMFlg1=        2001
         NFxFlg=           0 DoJE=F BraDBF=F KetDBF=F FulRan=T
         wScrn=  0.000000 ICntrl=         0 IOpCl=  0 I1Cent=           0 NGrid=           0
         NMat0=    1 NMatS0=      1 NMatT0=    0 NMatD0=    1 NMtDS0=    0 NMtDT0=    0
 Symmetry not used in FoFCou.
 FMM levels:  10  Number of levels for PrismC:   9
 Defaulting to unpruned grid for atomic number  53.
 Defaulting to unpruned grid for atomic number  53.
 Defaulting to unpruned grid for atomic number  53.
 Defaulting to unpruned grid for atomic number  53.
 Defaulting to unpruned grid for atomic number  53.
 Defaulting to unpruned grid for atomic number  53.
 Defaulting to unpruned grid for atomic number  53.
 Defaulting to unpruned grid for atomic number  53.
 Defaulting to unpruned grid for atomic number  53.
 Defaulting to unpruned grid for atomic number  53.
 Defaulting to unpruned grid for atomic number  53.
 Defaulting to unpruned grid for atomic number  53.
 Defaulting to unpruned grid for atomic number  53.
 Defaulting to unpruned grid for atomic number  53.
 Defaulting to unpruned grid for atomic number  53.
 Defaulting to unpruned grid for atomic number  53.
 Defaulting to unpruned grid for atomic number  53.
 Defaulting to unpruned grid for atomic number  53.
 Defaulting to unpruned grid for atomic number  53.
 Defaulting to unpruned grid for atomic number  53.
 Defaulting to unpruned grid for atomic number  53.
 Defaulting to unpruned grid for atomic number  53.
 Defaulting to unpruned grid for atomic number  53.
 Defaulting to unpruned grid for atomic number  53.
 Defaulting to unpruned grid for atomic number  53.
 Defaulting to unpruned grid for atomic number  53.
 Defaulting to unpruned grid for atomic number  53.
 Defaulting to unpruned grid for atomic number  53.
 Defaulting to unpruned grid for atomic number  53.
 Defaulting to unpruned grid for atomic number  53.
 Defaulting to unpruned grid for atomic number  53.
 Defaulting to unpruned grid for atomic number  53.
 Defaulting to unpruned grid for atomic number  53.
 Defaulting to unpruned grid for atomic number  53.
 Defaulting to unpruned grid for atomic number  53.
 Defaulting to unpruned grid for atomic number  53.
 Defaulting to unpruned grid for atomic number  53.
 Defaulting to unpruned grid for atomic number  53.
 Defaulting to unpruned grid for atomic number  53.
 Defaulting to unpruned grid for atomic number  53.
 Defaulting to unpruned grid for atomic number  53.
 Defaulting to unpruned grid for atomic number  53.
 Defaulting to unpruned grid for atomic number  53.
 Defaulting to unpruned grid for atomic number  53.
 Defaulting to unpruned grid for atomic number  53.
 Defaulting to unpruned grid for atomic number  53.
 Defaulting to unpruned grid for atomic number  53.
 Defaulting to unpruned grid for atomic number  53.
 Inv3:  Mode=1 IEnd=   436982283.
 Iteration    1 A*A^-1 deviation from unit magnitude is 4.44D-15 for  10798.
 Iteration    1 A*A^-1 deviation from orthogonality  is 4.44D-15 for  11440  10366.
 Iteration    1 A^-1*A deviation from unit magnitude is 4.55D-15 for   2632.
 Iteration    1 A^-1*A deviation from orthogonality  is 2.40D-12 for   6653   5150.
 E= -6139.34262066520    
 DIIS: error= 8.06D-03 at cycle   1 NSaved=   1.
 NSaved= 1 IEnMin= 1 EnMin= -6139.34262066520     IErMin= 1 ErrMin= 8.06D-03
 ErrMax= 8.06D-03  0.00D+00 EMaxC= 1.00D-01 BMatC= 3.28D+00 BMatP= 3.28D+00
 IDIUse=3 WtCom= 9.19D-01 WtEn= 8.06D-02
 Coeff-Com:  0.100D+01
 Coeff-En:   0.100D+01
 Coeff:      0.100D+01
 Gap=     0.312 Goal=   None    Shift=    0.000
 GapD=    0.312 DampG=1.000 DampE=1.000 DampFc=1.0000 IDamp=-1.
 RMSDP=2.00D-03 MaxDP=1.18D+00              OVMax= 2.48D-01

 Cycle   2  Pass 1  IDiag  1:
 RMSU=  1.99D-03    CP:  1.08D+00
 E= -6137.17329625551     Delta-E=        2.169324409697 Rises=F Damp=F
 DIIS: error= 1.34D-02 at cycle   2 NSaved=   2.
 NSaved= 2 IEnMin= 1 EnMin= -6139.34262066520     IErMin= 1 ErrMin= 8.06D-03
 ErrMax= 1.34D-02  0.00D+00 EMaxC= 1.00D-01 BMatC= 6.07D+00 BMatP= 3.28D+00
 IDIUse=2 WtCom= 0.00D+00 WtEn= 1.00D+00
 Coeff-En:   0.638D+00 0.362D+00
 Coeff:      0.638D+00 0.362D+00
 Gap=     0.110 Goal=   None    Shift=    0.000
 RMSDP=1.50D-03 MaxDP=9.54D-01 DE= 2.17D+00 OVMax= 1.95D-01

 Cycle   3  Pass 1  IDiag  1:
 RMSU=  5.90D-04    CP:  1.01D+00  3.17D-01
 E= -6141.76707261269     Delta-E=       -4.593776357178 Rises=F Damp=F
 DIIS: error= 3.02D-03 at cycle   3 NSaved=   3.
 NSaved= 3 IEnMin= 3 EnMin= -6141.76707261269     IErMin= 3 ErrMin= 3.02D-03
 ErrMax= 3.02D-03  0.00D+00 EMaxC= 1.00D-01 BMatC= 2.50D-01 BMatP= 3.28D+00
 IDIUse=3 WtCom= 9.70D-01 WtEn= 3.02D-02
 Coeff-Com:  0.260D+00 0.183D+00 0.557D+00
 Coeff-En:   0.000D+00 0.000D+00 0.100D+01
 Coeff:      0.252D+00 0.177D+00 0.571D+00
 Gap=     0.133 Goal=   None    Shift=    0.000
 RMSDP=4.92D-04 MaxDP=1.79D-01 DE=-4.59D+00 OVMax= 9.12D-02

 Cycle   4  Pass 1  IDiag  1:
 RMSU=  3.35D-04    CP:  9.89D-01  2.79D-01  4.09D-01
 E= -6141.93358547957     Delta-E=       -0.166512866883 Rises=F Damp=F
 DIIS: error= 2.02D-03 at cycle   4 NSaved=   4.
 NSaved= 4 IEnMin= 4 EnMin= -6141.93358547957     IErMin= 4 ErrMin= 2.02D-03
 ErrMax= 2.02D-03  0.00D+00 EMaxC= 1.00D-01 BMatC= 8.02D-02 BMatP= 2.50D-01
 IDIUse=3 WtCom= 9.80D-01 WtEn= 2.02D-02
 Coeff-Com:  0.633D-01 0.376D-01 0.361D+00 0.538D+00
 Coeff-En:   0.000D+00 0.000D+00 0.255D+00 0.745D+00
 Coeff:      0.620D-01 0.369D-01 0.359D+00 0.542D+00
 Gap=     0.109 Goal=   None    Shift=    0.000
 RMSDP=1.91D-04 MaxDP=8.75D-02 DE=-1.67D-01 OVMax= 6.03D-02

 Cycle   5  Pass 1  IDiag  1:
 RMSU=  9.42D-05    CP:  9.92D-01  2.84D-01  5.98D-01  6.36D-01
 E= -6141.99856580403     Delta-E=       -0.064980324460 Rises=F Damp=F
 DIIS: error= 8.58D-04 at cycle   5 NSaved=   5.
 NSaved= 5 IEnMin= 5 EnMin= -6141.99856580403     IErMin= 5 ErrMin= 8.58D-04
 ErrMax= 8.58D-04  0.00D+00 EMaxC= 1.00D-01 BMatC= 8.73D-03 BMatP= 8.02D-02
 IDIUse=3 WtCom= 9.91D-01 WtEn= 8.58D-03
 Coeff-Com:  0.110D-01 0.245D-02 0.160D+00 0.327D+00 0.499D+00
 Coeff-En:   0.000D+00 0.000D+00 0.000D+00 0.546D-01 0.945D+00
 Coeff:      0.109D-01 0.242D-02 0.159D+00 0.325D+00 0.503D+00
 Gap=     0.106 Goal=   None    Shift=    0.000
 RMSDP=4.99D-05 MaxDP=1.77D-02 DE=-6.50D-02 OVMax= 1.79D-02

 Cycle   6  Pass 1  IDiag  1:
 RMSU=  2.96D-05    CP:  9.93D-01  2.82D-01  5.88D-01  6.79D-01  6.08D-01
 E= -6142.00586883757     Delta-E=       -0.007303033541 Rises=F Damp=F
 DIIS: error= 4.40D-04 at cycle   6 NSaved=   6.
 NSaved= 6 IEnMin= 6 EnMin= -6142.00586883757     IErMin= 6 ErrMin= 4.40D-04
 ErrMax= 4.40D-04  0.00D+00 EMaxC= 1.00D-01 BMatC= 1.04D-03 BMatP= 8.73D-03
 IDIUse=3 WtCom= 9.96D-01 WtEn= 4.40D-03
 Coeff-Com:  0.939D-03-0.243D-02 0.631D-01 0.144D+00 0.311D+00 0.483D+00
 Coeff-En:   0.000D+00 0.000D+00 0.000D+00 0.000D+00 0.867D-01 0.913D+00
 Coeff:      0.935D-03-0.242D-02 0.628D-01 0.143D+00 0.310D+00 0.485D+00
 Gap=     0.107 Goal=   None    Shift=    0.000
 RMSDP=1.37D-05 MaxDP=3.87D-03 DE=-7.30D-03 OVMax= 5.84D-03

 Cycle   7  Pass 1  IDiag  1:
 RMSU=  9.66D-06    CP:  9.93D-01  2.83D-01  5.96D-01  6.68D-01  6.47D-01
                    CP:  7.79D-01
 E= -6142.00677360306     Delta-E=       -0.000904765489 Rises=F Damp=F
 DIIS: error= 1.76D-04 at cycle   7 NSaved=   7.
 NSaved= 7 IEnMin= 7 EnMin= -6142.00677360306     IErMin= 7 ErrMin= 1.76D-04
 ErrMax= 1.76D-04  0.00D+00 EMaxC= 1.00D-01 BMatC= 1.26D-04 BMatP= 1.04D-03
 IDIUse=3 WtCom= 9.98D-01 WtEn= 1.76D-03
 Coeff-Com: -0.432D-03-0.189D-02 0.238D-01 0.566D-01 0.146D+00 0.312D+00
 Coeff-Com:  0.464D+00
 Coeff-En:   0.000D+00 0.000D+00 0.000D+00 0.000D+00 0.000D+00 0.757D-01
 Coeff-En:   0.924D+00
 Coeff:     -0.431D-03-0.189D-02 0.238D-01 0.565D-01 0.145D+00 0.312D+00
 Coeff:      0.465D+00
 Gap=     0.107 Goal=   None    Shift=    0.000
 RMSDP=4.48D-06 MaxDP=1.40D-03 DE=-9.05D-04 OVMax= 1.88D-03

 Cycle   8  Pass 1  IDiag  1:
 RMSU=  3.44D-06    CP:  9.93D-01  2.83D-01  5.94D-01  6.70D-01  6.50D-01
                    CP:  7.57D-01  7.41D-01
 E= -6142.00688363245     Delta-E=       -0.000110029396 Rises=F Damp=F
 DIIS: error= 4.79D-05 at cycle   8 NSaved=   8.
 NSaved= 8 IEnMin= 8 EnMin= -6142.00688363245     IErMin= 8 ErrMin= 4.79D-05
 ErrMax= 4.79D-05  0.00D+00 EMaxC= 1.00D-01 BMatC= 1.02D-05 BMatP= 1.26D-04
 IDIUse=1 WtCom= 1.00D+00 WtEn= 0.00D+00
 Coeff-Com: -0.316D-03-0.868D-03 0.685D-02 0.166D-01 0.505D-01 0.130D+00
 Coeff-Com:  0.270D+00 0.528D+00
 Coeff:     -0.316D-03-0.868D-03 0.685D-02 0.166D-01 0.505D-01 0.130D+00
 Coeff:      0.270D+00 0.528D+00
 Gap=     0.107 Goal=   None    Shift=    0.000
 RMSDP=1.47D-06 MaxDP=3.77D-04 DE=-1.10D-04 OVMax= 5.78D-04

 Cycle   9  Pass 1  IDiag  1:
 RMSU=  1.14D-06    CP:  9.93D-01  2.83D-01  5.94D-01  6.72D-01  6.49D-01
                    CP:  7.62D-01  7.37D-01  7.90D-01
 E= -6142.00689156948     Delta-E=       -0.000007937029 Rises=F Damp=F
 DIIS: error= 1.47D-05 at cycle   9 NSaved=   9.
 NSaved= 9 IEnMin= 9 EnMin= -6142.00689156948     IErMin= 9 ErrMin= 1.47D-05
 ErrMax= 1.47D-05  0.00D+00 EMaxC= 1.00D-01 BMatC= 1.75D-06 BMatP= 1.02D-05
 IDIUse=1 WtCom= 1.00D+00 WtEn= 0.00D+00
 Coeff-Com: -0.129D-03-0.275D-03 0.972D-03 0.242D-02 0.114D-01 0.375D-01
 Coeff-Com:  0.991D-01 0.330D+00 0.519D+00
 Coeff:     -0.129D-03-0.275D-03 0.972D-03 0.242D-02 0.114D-01 0.375D-01
 Coeff:      0.991D-01 0.330D+00 0.519D+00
 Gap=     0.107 Goal=   None    Shift=    0.000
 RMSDP=6.14D-07 MaxDP=1.99D-04 DE=-7.94D-06 OVMax= 3.17D-04

 Cycle  10  Pass 1  IDiag  1:
 RMSU=  4.73D-07    CP:  9.93D-01  2.83D-01  5.94D-01  6.71D-01  6.50D-01
                    CP:  7.67D-01  7.46D-01  7.86D-01  7.17D-01
 E= -6142.00689303186     Delta-E=       -0.000001462373 Rises=F Damp=F
 DIIS: error= 4.57D-06 at cycle  10 NSaved=  10.
 NSaved=10 IEnMin=10 EnMin= -6142.00689303186     IErMin=10 ErrMin= 4.57D-06
 ErrMax= 4.57D-06  0.00D+00 EMaxC= 1.00D-01 BMatC= 2.46D-07 BMatP= 1.75D-06
 IDIUse=1 WtCom= 1.00D+00 WtEn= 0.00D+00
 Coeff-Com: -0.496D-04-0.681D-04-0.205D-03-0.480D-03 0.129D-02 0.831D-02
 Coeff-Com:  0.292D-01 0.143D+00 0.329D+00 0.490D+00
 Coeff:     -0.496D-04-0.681D-04-0.205D-03-0.480D-03 0.129D-02 0.831D-02
 Coeff:      0.292D-01 0.143D+00 0.329D+00 0.490D+00
 Gap=     0.107 Goal=   None    Shift=    0.000
 RMSDP=3.03D-07 MaxDP=1.30D-04 DE=-1.46D-06 OVMax= 1.34D-04

 Cycle  11  Pass 1  IDiag  1:
 RMSU=  1.80D-07    CP:  9.93D-01  2.83D-01  5.94D-01  6.71D-01  6.50D-01
                    CP:  7.66D-01  7.46D-01  8.13D-01  7.97D-01  6.77D-01
 E= -6142.00689324759     Delta-E=       -0.000000215732 Rises=F Damp=F
 DIIS: error= 1.04D-06 at cycle  11 NSaved=  11.
 NSaved=11 IEnMin=11 EnMin= -6142.00689324759     IErMin=11 ErrMin= 1.04D-06
 ErrMax= 1.04D-06  0.00D+00 EMaxC= 1.00D-01 BMatC= 2.37D-08 BMatP= 2.46D-07
 IDIUse=1 WtCom= 1.00D+00 WtEn= 0.00D+00
 Coeff-Com: -0.171D-04-0.810D-05-0.225D-03-0.532D-03-0.428D-03 0.100D-02
 Coeff-Com:  0.620D-02 0.476D-01 0.136D+00 0.291D+00 0.519D+00
 Coeff:     -0.171D-04-0.810D-05-0.225D-03-0.532D-03-0.428D-03 0.100D-02
 Coeff:      0.620D-02 0.476D-01 0.136D+00 0.291D+00 0.519D+00
 Gap=     0.107 Goal=   None    Shift=    0.000
 RMSDP=1.14D-07 MaxDP=3.85D-05 DE=-2.16D-07 OVMax= 3.91D-05

 Cycle  12  Pass 1  IDiag  1:
 RMSU=  7.45D-08    CP:  9.93D-01  2.83D-01  5.94D-01  6.71D-01  6.50D-01
                    CP:  7.66D-01  7.50D-01  8.19D-01  7.90D-01  7.39D-01
                    CP:  6.65D-01
 E= -6142.00689326774     Delta-E=       -0.000000020154 Rises=F Damp=F
 DIIS: error= 4.02D-07 at cycle  12 NSaved=  12.
 NSaved=12 IEnMin=12 EnMin= -6142.00689326774     IErMin=12 ErrMin= 4.02D-07
 ErrMax= 4.02D-07  0.00D+00 EMaxC= 1.00D-01 BMatC= 3.37D-09 BMatP= 2.37D-08
 IDIUse=1 WtCom= 1.00D+00 WtEn= 0.00D+00
 Coeff-Com: -0.329D-05 0.722D-05-0.123D-03-0.283D-03-0.502D-03-0.611D-03
 Coeff-Com: -0.506D-03 0.887D-02 0.362D-01 0.105D+00 0.311D+00 0.540D+00
 Coeff:     -0.329D-05 0.722D-05-0.123D-03-0.283D-03-0.502D-03-0.611D-03
 Coeff:     -0.506D-03 0.887D-02 0.362D-01 0.105D+00 0.311D+00 0.540D+00
 Gap=     0.107 Goal=   None    Shift=    0.000
 RMSDP=4.57D-08 MaxDP=2.05D-05 DE=-2.02D-08 OVMax= 1.34D-05

 Cycle  13  Pass 1  IDiag  1:
 RMSU=  2.29D-08    CP:  9.93D-01  2.83D-01  5.94D-01  6.71D-01  6.50D-01
                    CP:  7.66D-01  7.49D-01  8.20D-01  7.97D-01  7.37D-01
                    CP:  7.43D-01  7.22D-01
 E= -6142.00689327080     Delta-E=       -0.000000003056 Rises=F Damp=F
 DIIS: error= 1.14D-07 at cycle  13 NSaved=  13.
 NSaved=13 IEnMin=13 EnMin= -6142.00689327080     IErMin=13 ErrMin= 1.14D-07
 ErrMax= 1.14D-07  0.00D+00 EMaxC= 1.00D-01 BMatC= 3.95D-10 BMatP= 3.37D-09
 IDIUse=1 WtCom= 1.00D+00 WtEn= 0.00D+00
 Coeff-Com:  0.428D-07 0.520D-05-0.378D-04-0.818D-04-0.218D-03-0.474D-03
 Coeff-Com: -0.116D-02-0.167D-02 0.941D-03 0.167D-01 0.102D+00 0.306D+00
 Coeff-Com:  0.578D+00
 Coeff:      0.428D-07 0.520D-05-0.378D-04-0.818D-04-0.218D-03-0.474D-03
 Coeff:     -0.116D-02-0.167D-02 0.941D-03 0.167D-01 0.102D+00 0.306D+00
 Coeff:      0.578D+00
 Gap=     0.107 Goal=   None    Shift=    0.000
 RMSDP=1.30D-08 MaxDP=5.27D-06 DE=-3.06D-09 OVMax= 7.02D-06

 Cycle  14  Pass 1  IDiag  1:
 RMSU=  7.87D-09    CP:  9.93D-01  2.83D-01  5.94D-01  6.71D-01  6.50D-01
                    CP:  7.66D-01  7.49D-01  8.19D-01  7.98D-01  7.49D-01
                    CP:  7.52D-01  7.78D-01  8.07D-01
 E= -6142.00689326998     Delta-E=        0.000000000815 Rises=F Damp=F
 DIIS: error= 6.30D-08 at cycle  14 NSaved=  14.
 NSaved=14 IEnMin=13 EnMin= -6142.00689327080     IErMin=14 ErrMin= 6.30D-08
 ErrMax= 6.30D-08  0.00D+00 EMaxC= 1.00D-01 BMatC= 7.50D-11 BMatP= 3.95D-10
 IDIUse=1 WtCom= 1.00D+00 WtEn= 0.00D+00
 Coeff-Com:  0.541D-06 0.192D-05-0.323D-05-0.424D-05-0.541D-04-0.197D-03
 Coeff-Com: -0.638D-03-0.256D-02-0.578D-02-0.848D-02 0.789D-02 0.924D-01
 Coeff-Com:  0.358D+00 0.560D+00
 Coeff:      0.541D-06 0.192D-05-0.323D-05-0.424D-05-0.541D-04-0.197D-03
 Coeff:     -0.638D-03-0.256D-02-0.578D-02-0.848D-02 0.789D-02 0.924D-01
 Coeff:      0.358D+00 0.560D+00
 Gap=     0.107 Goal=   None    Shift=    0.000
 RMSDP=5.41D-09 MaxDP=2.57D-06 DE= 8.15D-10 OVMax= 1.74D-06

 Cycle  15  Pass 1  IDiag  1:
 RMSU=  3.33D-09    CP:  9.93D-01  2.83D-01  5.94D-01  6.71D-01  6.50D-01
                    CP:  7.66D-01  7.49D-01  8.20D-01  7.99D-01  7.48D-01
                    CP:  7.60D-01  7.94D-01  8.72D-01  8.55D-01
 E= -6142.00689327113     Delta-E=       -0.000000001150 Rises=F Damp=F
 DIIS: error= 3.06D-08 at cycle  15 NSaved=  15.
 NSaved=15 IEnMin=15 EnMin= -6142.00689327113     IErMin=15 ErrMin= 3.06D-08
 ErrMax= 3.06D-08  0.00D+00 EMaxC= 1.00D-01 BMatC= 1.07D-11 BMatP= 7.50D-11
 IDIUse=1 WtCom= 1.00D+00 WtEn= 0.00D+00
 Coeff-Com:  0.334D-06 0.477D-06 0.217D-05 0.590D-05-0.848D-05-0.615D-04
 Coeff-Com: -0.230D-03-0.126D-02-0.346D-02-0.701D-02-0.745D-02 0.178D-01
 Coeff-Com:  0.149D+00 0.340D+00 0.513D+00
 Coeff:      0.334D-06 0.477D-06 0.217D-05 0.590D-05-0.848D-05-0.615D-04
 Coeff:     -0.230D-03-0.126D-02-0.346D-02-0.701D-02-0.745D-02 0.178D-01
 Coeff:      0.149D+00 0.340D+00 0.513D+00
 Gap=     0.107 Goal=   None    Shift=    0.000
 RMSDP=1.92D-09 MaxDP=4.53D-07 DE=-1.15D-09 OVMax= 1.03D-06

 Error on total polarization charges =  0.09076
 SCF Done:  E(RB3LYP) =  -6142.00689327     A.U. after   15 cycles
            NFock= 15  Conv=0.19D-08     -V/T= 2.0355
 KE= 5.931197249584D+03 PE=-7.021222366909D+04 EE= 3.019447470959D+04
 SMD-CDS (non-electrostatic) energy       (kcal/mol) =     -20.03
 (included in total energy above)
 Leave Link  502 at Sun Jun 30 08:44:46 2024, MaxMem= 12348030976 cpu:          474312.2 elap:           10023.7
 (Enter /cm/shared/apps/spack/cpu/opt/spack/linux-centos8-zen/gcc-8.3.1/gaussian-16.C.01-po5bqktfeugvmjyga3v7eigbecnokxng/g16/l601.exe)
 Copying SCF densities to generalized density rwf, IOpCl= 0 IROHF=0.
 Hyperfine terms turned off by default for NAtoms > 100.

 **********************************************************************

            Population analysis using the SCF Density.

 **********************************************************************

 Alpha  occ. eigenvalues --  -89.03355 -89.02997 -24.72072 -24.71675 -24.71593
 Alpha  occ. eigenvalues --  -24.71554 -24.71170 -24.70892 -24.69881 -24.69649
 Alpha  occ. eigenvalues --  -19.15048 -19.13423 -19.12268 -19.10596 -19.09738
 Alpha  occ. eigenvalues --  -19.09680 -19.09313 -19.09138 -14.37869 -14.34117
 Alpha  occ. eigenvalues --  -14.32779 -14.31764 -14.31657 -14.28346 -10.42738
 Alpha  occ. eigenvalues --  -10.42210 -10.29006 -10.27567 -10.27358 -10.26445
 Alpha  occ. eigenvalues --  -10.26403 -10.25567 -10.25294 -10.22637 -10.22176
 Alpha  occ. eigenvalues --  -10.22043 -10.21710 -10.21686 -10.21506 -10.21488
 Alpha  occ. eigenvalues --  -10.21474 -10.21437 -10.21181 -10.20942 -10.20854
 Alpha  occ. eigenvalues --  -10.20689 -10.20663 -10.20653 -10.20648 -10.20586
 Alpha  occ. eigenvalues --  -10.20574 -10.20544 -10.19925 -10.19894 -10.19760
 Alpha  occ. eigenvalues --  -10.19733 -10.19685 -10.19653 -10.19612 -10.19545
 Alpha  occ. eigenvalues --  -10.19433 -10.19409 -10.19339 -10.19217 -10.19214
 Alpha  occ. eigenvalues --  -10.19200 -10.19097 -10.18947 -10.18809 -10.18780
 Alpha  occ. eigenvalues --  -10.18721 -10.18694 -10.18653 -10.18651 -10.18628
 Alpha  occ. eigenvalues --  -10.18391 -10.18379 -10.18363 -10.18243 -10.18127
 Alpha  occ. eigenvalues --  -10.18096 -10.18079 -10.18055 -10.18016 -10.17953
 Alpha  occ. eigenvalues --  -10.17952 -10.17891 -10.17854 -10.17841 -10.17814
 Alpha  occ. eigenvalues --  -10.17796 -10.17759 -10.17559 -10.17427 -10.17412
 Alpha  occ. eigenvalues --  -10.17390 -10.17307 -10.17110 -10.17058 -10.16999
 Alpha  occ. eigenvalues --  -10.16789 -10.16728 -10.16713 -10.16694 -10.16674
 Alpha  occ. eigenvalues --  -10.16472 -10.16090 -10.16063 -10.15779 -10.15369
 Alpha  occ. eigenvalues --   -8.07895  -8.07518  -6.83101  -6.04199  -6.04136
 Alpha  occ. eigenvalues --   -6.04112  -6.03845  -6.03749  -6.03725  -4.85859
 Alpha  occ. eigenvalues --   -4.84218  -4.84182  -1.90562  -1.90110  -1.90082
 Alpha  occ. eigenvalues --   -1.88702  -1.88701  -1.32720  -1.32205  -1.24016
 Alpha  occ. eigenvalues --   -1.23895  -1.23702  -1.23307  -1.23189  -1.22790
 Alpha  occ. eigenvalues --   -1.11488  -1.09892  -1.08361  -1.05436  -1.04906
 Alpha  occ. eigenvalues --   -1.03984  -1.00530  -0.99172  -0.98854  -0.98355
 Alpha  occ. eigenvalues --   -0.94535  -0.93655  -0.92544  -0.90470  -0.89017
 Alpha  occ. eigenvalues --   -0.88554  -0.88276  -0.88144  -0.87657  -0.87370
 Alpha  occ. eigenvalues --   -0.85004  -0.84425  -0.84179  -0.83954  -0.83098
 Alpha  occ. eigenvalues --   -0.81983  -0.81672  -0.80079  -0.79774  -0.79411
 Alpha  occ. eigenvalues --   -0.79409  -0.78737  -0.78538  -0.78358  -0.78347
 Alpha  occ. eigenvalues --   -0.77663  -0.77549  -0.77328  -0.77095  -0.76573
 Alpha  occ. eigenvalues --   -0.76402  -0.75438  -0.74750  -0.74526  -0.74491
 Alpha  occ. eigenvalues --   -0.74138  -0.73444  -0.72766  -0.72634  -0.72579
 Alpha  occ. eigenvalues --   -0.71968  -0.71910  -0.71150  -0.70762  -0.70348
 Alpha  occ. eigenvalues --   -0.70290  -0.69755  -0.69038  -0.67906  -0.67828
 Alpha  occ. eigenvalues --   -0.66765  -0.66635  -0.65893  -0.65176  -0.64844
 Alpha  occ. eigenvalues --   -0.64668  -0.64487  -0.63791  -0.63597  -0.63411
 Alpha  occ. eigenvalues --   -0.63090  -0.62763  -0.62726  -0.62397  -0.62116
 Alpha  occ. eigenvalues --   -0.61718  -0.61649  -0.60674  -0.60396  -0.60211
 Alpha  occ. eigenvalues --   -0.60044  -0.59905  -0.59826  -0.59522  -0.59471
 Alpha  occ. eigenvalues --   -0.59069  -0.58717  -0.58304  -0.58158  -0.57991
 Alpha  occ. eigenvalues --   -0.57860  -0.57585  -0.57038  -0.56772  -0.55058
 Alpha  occ. eigenvalues --   -0.54842  -0.54698  -0.54642  -0.54404  -0.53544
 Alpha  occ. eigenvalues --   -0.53197  -0.52768  -0.52625  -0.52437  -0.52064
 Alpha  occ. eigenvalues --   -0.51978  -0.51631  -0.51523  -0.51296  -0.51214
 Alpha  occ. eigenvalues --   -0.50561  -0.50321  -0.50081  -0.49884  -0.49785
 Alpha  occ. eigenvalues --   -0.49670  -0.49541  -0.49183  -0.48895  -0.48632
 Alpha  occ. eigenvalues --   -0.48564  -0.48521  -0.48246  -0.48171  -0.48068
 Alpha  occ. eigenvalues --   -0.48020  -0.47946  -0.47749  -0.47725  -0.47466
 Alpha  occ. eigenvalues --   -0.47437  -0.47292  -0.47075  -0.47059  -0.46923
 Alpha  occ. eigenvalues --   -0.46857  -0.46549  -0.46237  -0.45866  -0.45766
 Alpha  occ. eigenvalues --   -0.45494  -0.45427  -0.45253  -0.45164  -0.44994
 Alpha  occ. eigenvalues --   -0.44977  -0.44944  -0.44748  -0.44585  -0.44495
 Alpha  occ. eigenvalues --   -0.44483  -0.44339  -0.44243  -0.43967  -0.43862
 Alpha  occ. eigenvalues --   -0.43759  -0.43287  -0.43174  -0.43140  -0.42989
 Alpha  occ. eigenvalues --   -0.42966  -0.42901  -0.42667  -0.42581  -0.42489
 Alpha  occ. eigenvalues --   -0.42427  -0.42295  -0.42039  -0.41789  -0.41677
 Alpha  occ. eigenvalues --   -0.41607  -0.41570  -0.41485  -0.41427  -0.41266
 Alpha  occ. eigenvalues --   -0.41161  -0.41073  -0.40847  -0.40801  -0.40684
 Alpha  occ. eigenvalues --   -0.40633  -0.40451  -0.40263  -0.40181  -0.40028
 Alpha  occ. eigenvalues --   -0.39961  -0.39684  -0.39612  -0.39481  -0.39315
 Alpha  occ. eigenvalues --   -0.39034  -0.38994  -0.38515  -0.38416  -0.38198
 Alpha  occ. eigenvalues --   -0.37759  -0.37553  -0.37547  -0.37352  -0.37211
 Alpha  occ. eigenvalues --   -0.37169  -0.37079  -0.37022  -0.36829  -0.36747
 Alpha  occ. eigenvalues --   -0.36697  -0.36596  -0.36565  -0.36297  -0.36260
 Alpha  occ. eigenvalues --   -0.36170  -0.36075  -0.35980  -0.35848  -0.35719
 Alpha  occ. eigenvalues --   -0.35578  -0.35310  -0.35218  -0.35119  -0.34907
 Alpha  occ. eigenvalues --   -0.34603  -0.34500  -0.34425  -0.33830  -0.33559
 Alpha  occ. eigenvalues --   -0.33505  -0.33253  -0.32946  -0.32745  -0.32488
 Alpha  occ. eigenvalues --   -0.32318  -0.31944  -0.31475  -0.31322  -0.31168
 Alpha  occ. eigenvalues --   -0.30946  -0.30294  -0.29992  -0.29884  -0.29626
 Alpha  occ. eigenvalues --   -0.29059  -0.28857  -0.28644  -0.28462  -0.28383
 Alpha  occ. eigenvalues --   -0.28073  -0.27854  -0.27770  -0.27612  -0.27513
 Alpha  occ. eigenvalues --   -0.27308  -0.27191  -0.26437  -0.26248  -0.26191
 Alpha  occ. eigenvalues --   -0.26096  -0.25832  -0.25582  -0.25376  -0.25213
 Alpha  occ. eigenvalues --   -0.25039  -0.24933  -0.24682  -0.24560  -0.24478
 Alpha  occ. eigenvalues --   -0.24008  -0.23745  -0.23261  -0.22886  -0.22450
 Alpha  occ. eigenvalues --   -0.21939  -0.21561  -0.20710
 Alpha virt. eigenvalues --   -0.10031  -0.07271  -0.06700  -0.05691  -0.05245
 Alpha virt. eigenvalues --   -0.04659  -0.04519  -0.03578  -0.03318  -0.03004
 Alpha virt. eigenvalues --   -0.02872  -0.02244  -0.02205  -0.02154  -0.02064
 Alpha virt. eigenvalues --   -0.00899  -0.00673  -0.00399  -0.00001   0.00417
 Alpha virt. eigenvalues --    0.00489   0.00840   0.00981   0.01685   0.02768
 Alpha virt. eigenvalues --    0.03281   0.03806   0.04061   0.04368   0.04467
 Alpha virt. eigenvalues --    0.04733   0.04976   0.05001   0.05137   0.05185
 Alpha virt. eigenvalues --    0.05574   0.05905   0.06046   0.06138   0.06373
 Alpha virt. eigenvalues --    0.06452   0.06740   0.06961   0.07036   0.07166
 Alpha virt. eigenvalues --    0.07309   0.07329   0.07443   0.07612   0.07804
 Alpha virt. eigenvalues --    0.07936   0.08115   0.08468   0.08535   0.08700
 Alpha virt. eigenvalues --    0.08908   0.08937   0.09099   0.09185   0.09471
 Alpha virt. eigenvalues --    0.09530   0.09713   0.09825   0.09865   0.09985
 Alpha virt. eigenvalues --    0.10134   0.10386   0.10394   0.10607   0.10695
 Alpha virt. eigenvalues --    0.10797   0.10859   0.10957   0.11066   0.11161
 Alpha virt. eigenvalues --    0.11391   0.11481   0.11547   0.11597   0.11707
 Alpha virt. eigenvalues --    0.11853   0.11933   0.12079   0.12244   0.12254
 Alpha virt. eigenvalues --    0.12441   0.12466   0.12609   0.12708   0.12839
 Alpha virt. eigenvalues --    0.13023   0.13185   0.13241   0.13408   0.13465
 Alpha virt. eigenvalues --    0.13550   0.13628   0.13828   0.13902   0.14069
 Alpha virt. eigenvalues --    0.14154   0.14244   0.14300   0.14357   0.14494
 Alpha virt. eigenvalues --    0.14652   0.14732   0.14808   0.14951   0.15026
 Alpha virt. eigenvalues --    0.15145   0.15287   0.15318   0.15445   0.15549
 Alpha virt. eigenvalues --    0.15895   0.15968   0.15987   0.16082   0.16229
 Alpha virt. eigenvalues --    0.16368   0.16441   0.16525   0.16651   0.16705
 Alpha virt. eigenvalues --    0.16932   0.17206   0.17367   0.17466   0.17606
 Alpha virt. eigenvalues --    0.17773   0.17934   0.18016   0.18100   0.18215
 Alpha virt. eigenvalues --    0.18341   0.18505   0.18538   0.18629   0.18761
 Alpha virt. eigenvalues --    0.18872   0.18920   0.19022   0.19184   0.19206
 Alpha virt. eigenvalues --    0.19370   0.19583   0.19651   0.19784   0.19893
 Alpha virt. eigenvalues --    0.20028   0.20176   0.20262   0.20353   0.20388
 Alpha virt. eigenvalues --    0.20600   0.20716   0.20777   0.20898   0.20982
 Alpha virt. eigenvalues --    0.21030   0.21173   0.21255   0.21341   0.21442
 Alpha virt. eigenvalues --    0.21543   0.21613   0.21686   0.21869   0.21999
 Alpha virt. eigenvalues --    0.22073   0.22115   0.22258   0.22360   0.22402
 Alpha virt. eigenvalues --    0.22499   0.22639   0.22704   0.22875   0.22965
 Alpha virt. eigenvalues --    0.23132   0.23348   0.23522   0.23586   0.23640
 Alpha virt. eigenvalues --    0.23757   0.23829   0.23943   0.24069   0.24176
 Alpha virt. eigenvalues --    0.24280   0.24408   0.24434   0.24535   0.24634
 Alpha virt. eigenvalues --    0.24672   0.24734   0.24918   0.25090   0.25250
 Alpha virt. eigenvalues --    0.25317   0.25474   0.25630   0.25767   0.25960
 Alpha virt. eigenvalues --    0.26087   0.26149   0.26238   0.26299   0.26362
 Alpha virt. eigenvalues --    0.26380   0.26520   0.26660   0.26743   0.26800
 Alpha virt. eigenvalues --    0.27019   0.27076   0.27144   0.27210   0.27377
 Alpha virt. eigenvalues --    0.27643   0.27717   0.27758   0.27972   0.27996
 Alpha virt. eigenvalues --    0.28116   0.28213   0.28327   0.28555   0.28573
[...]
 Alpha virt. eigenvalues --    6.13026   6.13654   6.13860   6.15886   6.16037
 Alpha virt. eigenvalues --    6.16872   6.17594   6.18005   6.18791   6.22755
 Alpha virt. eigenvalues --    6.23243   6.23729   6.24795   6.25145   6.25371
 Alpha virt. eigenvalues --    6.25540   6.28467   6.30175   6.35592   6.37037
 Alpha virt. eigenvalues --    6.40950   6.43524   6.44295   6.44655   6.45141
 Alpha virt. eigenvalues --    6.46019   6.46330   6.47060   6.47340   6.47931
 Alpha virt. eigenvalues --    6.53252   6.54633   6.55795   6.56204   6.56464
 Alpha virt. eigenvalues --    6.58299   6.61357   6.62982   6.63799   6.64595
 Alpha virt. eigenvalues --    6.66759   6.69577   6.69642   6.71094   6.74386
 Alpha virt. eigenvalues --    6.77274   6.77642   6.77993   6.78213   6.78947
 Alpha virt. eigenvalues --    6.79645   6.80431   6.81156   6.82334   6.82791
 Alpha virt. eigenvalues --    6.82849   6.82873   6.83546   6.83754   6.84326
 Alpha virt. eigenvalues --    6.84430   6.84763   6.84795   6.85242   6.85461
 Alpha virt. eigenvalues --    6.85711   6.86088   6.86209   6.86297   6.86696
 Alpha virt. eigenvalues --    6.86939   6.87180   6.87305   6.87610   6.87754
 Alpha virt. eigenvalues --    6.87986   6.88047   6.90277   6.92139   6.92486
 Alpha virt. eigenvalues --    6.93593   6.94210   6.95825   6.96081   6.97172
 Alpha virt. eigenvalues --    6.97715   6.98277   6.98558   6.98937   6.99059
 Alpha virt. eigenvalues --    7.00104   7.01269   7.01751   7.02677   7.05339
 Alpha virt. eigenvalues --    7.05640   7.06305   7.06375   7.07630   7.09196
 Alpha virt. eigenvalues --    7.09997   7.10532   7.11375   7.12007   7.12796
 Alpha virt. eigenvalues --    7.13043   7.13831   7.13887   7.14497   7.18103
 Alpha virt. eigenvalues --    7.20625   7.23005   7.25796   7.26096   7.27793
 Alpha virt. eigenvalues --    7.33001   7.34969   7.36186   7.36716   7.36780
 Alpha virt. eigenvalues --    7.37869   7.41649   7.43380   7.43774   7.46841
 Alpha virt. eigenvalues --    7.47021   7.47677   7.48444   7.49516   7.56708
 Alpha virt. eigenvalues --    7.58293   7.58994   7.60064   7.61508   7.62522
 Alpha virt. eigenvalues --    7.63145   7.64835   7.66135   7.70443   7.92028
 Alpha virt. eigenvalues --    7.94694   7.99955   8.08755   8.27424   8.28861
 Alpha virt. eigenvalues --    8.30575   8.31405   8.31593   8.32132   8.41941
 Alpha virt. eigenvalues --    8.43639   8.45766   8.45866   8.49953   8.50317
 Alpha virt. eigenvalues --    8.58004   8.58163   8.58520   8.65790   8.68174
 Alpha virt. eigenvalues --    8.68485   8.75516   8.76324   8.78608   8.78673
 Alpha virt. eigenvalues --    8.79238   8.82301   8.90255   8.91304   8.95529
 Alpha virt. eigenvalues --    8.96315   8.99592   9.01910   9.03646   9.04939
 Alpha virt. eigenvalues --    9.08170   9.10761   9.11851   9.18225   9.18495
 Alpha virt. eigenvalues --    9.19095   9.25514   9.29164   9.56146   9.58484
 Alpha virt. eigenvalues --    9.77229   9.87053  10.17197  10.18859  22.58117
 Alpha virt. eigenvalues --   22.65621  22.68378  22.71469  22.75810  22.80043
 Alpha virt. eigenvalues --   22.88358  22.88874  22.90303  22.92483  22.94210
 Alpha virt. eigenvalues --   22.96370  22.98450  23.00218  23.03249  23.04772
 Alpha virt. eigenvalues --   23.06202  23.07085  23.07889  23.08159  23.08576
 Alpha virt. eigenvalues --   23.09430  23.09824  23.10542  23.10784  23.11201
 Alpha virt. eigenvalues --   23.13759  23.13964  23.14355  23.16297  23.16686
 Alpha virt. eigenvalues --   23.17481  23.17790  23.18937  23.19928  23.20582
 Alpha virt. eigenvalues --   23.21481  23.21644  23.22065  23.22383  23.22571
 Alpha virt. eigenvalues --   23.23150  23.23628  23.24581  23.25689  23.26477
 Alpha virt. eigenvalues --   23.26983  23.27320  23.29269  23.29521  23.31059
 Alpha virt. eigenvalues --   23.31512  23.33084  23.34169  23.34468  23.35280
 Alpha virt. eigenvalues --   23.36650  23.37204  23.37406  23.41184  23.42570
 Alpha virt. eigenvalues --   23.43407  23.44003  23.44543  23.45067  23.46376
 Alpha virt. eigenvalues --   23.48586  23.53448  23.55392  23.56296  23.58682
 Alpha virt. eigenvalues --   23.60010  23.62026  23.62514  23.80202  23.80641
 Alpha virt. eigenvalues --   23.81237  23.88427  23.90968  23.92716  24.11108
 Alpha virt. eigenvalues --   24.13337  24.14561  24.17073  24.23732  24.29109
 Alpha virt. eigenvalues --   24.43550  24.47676  32.58760  32.63672  32.79818
 Alpha virt. eigenvalues --   33.07050  33.23625  33.37154  34.74914  34.78250
 Alpha virt. eigenvalues --   35.09855  43.33346  43.97097  44.03445  44.17929
 Alpha virt. eigenvalues --   44.21582  44.31399  44.32848  44.41673  44.46969
 Alpha virt. eigenvalues --   57.17479  57.17635  57.33461  57.38136  57.50858
 Alpha virt. eigenvalues --   57.56164  57.56706  57.64913 117.97040
          Condensed to atoms (all electrons):
 Mulliken charges:
               1
     1  C    0.153063
     2  C   -0.061606
     3  C    0.169894
     4  C   -0.213770
     5  C    0.254744
     6  N   -0.298866
     7  H    0.146499
     8  C   -0.063980
     9  C    0.139114
    10  C   -0.207603
    11  C   -0.206748
    12  C   -0.093203
    13  H    0.136334
    14  H    0.154063
    15  H    0.143982
    16  C    0.310345
    17  C    0.128640
    18  C   -0.221109
    19  C   -0.221477
    20  C   -0.167056
    21  H    0.200197
    22  C   -0.169193
    23  H    0.139244
    24  C   -0.171753
    25  H    0.154288
    26  H    0.142205
    27  H    0.147051
    28  F   -0.237452
    29  C   -0.317121
    30  H    0.117992
    31  H    0.136806
    32  H    0.111671
    33  C   -0.038145
    34  C   -0.055579
    35  C   -0.007650
    36  H    0.102345
    37  H    0.113159
    38  C    0.008106
    39  H    0.105887
    40  H    0.099428
    41  H    0.101601
    42  H    0.109259
    43  H    0.101694
    44  H    0.085990
    45  N   -0.020873
    46  O   -0.341602
    47  I   -0.010050
    48  H    0.135599
    49  C   -0.143243
    50  C   -0.175874
    51  C   -0.020485
    52  C   -0.070679
    53  C   -0.146449
    54  C   -0.135966
    55  H    0.154338
    56  H    0.162068
    57  C    0.091277
    58  C   -0.132339
    59  H    0.147250
    60  H    0.153378
    61  C   -0.120080
    62  C   -0.059165
    63  H    0.142112
    64  C    0.039351
    65  C   -0.060339
    66  C   -0.034502
    67  C   -0.137401
    68  C   -0.045932
    69  C   -0.187447
    70  C   -0.107459
    71  C   -0.138998
    72  C   -0.141308
    73  H    0.160291
    74  H    0.145607
    75  C   -0.137840
    76  H    0.146356
    77  H    0.153568
    78  H    0.152687
    79  S    0.898876
    80  O   -0.530267
    81  O   -0.534617
    82  S    1.013022
    83  O   -0.586007
    84  O   -0.605592
    85  N   -0.457445
    86  C    0.119740
    87  C    0.208527
    88  C    0.112880
    89  C    0.271560
    90  C   -0.028321
    91  C   -0.225641
    92  C   -0.263619
    93  C   -0.057477
    94  C   -0.099811
    95  H    0.157208
    96  C   -0.187404
    97  H    0.158547
    98  H    0.156463
    99  H    0.158125
   100  C   -0.089356
   101  C   -0.195324
   102  C   -0.217564
   103  C   -0.088064
   104  C   -0.131739
   105  H    0.166654
   106  C   -0.146255
   107  H    0.159513
   108  H    0.157611
   109  H    0.159254
   110  C    0.597487
   111  F   -0.193806
   112  F   -0.191640
   113  F   -0.190786
   114  C    0.566870
   115  F   -0.177757
   116  F   -0.193830
   117  F   -0.189028
   118  N   -0.381208
   119  C    0.336083
   120  C   -0.110449
   121  C   -0.104857
   122  C    0.230377
   123  O   -0.355062
   124  O   -0.368074
   125  H    0.108762
   126  H    0.101479
   127  H    0.094674
   128  H    0.097271
   129  C    0.224666
   130  C   -0.232287
   131  C   -0.012679
   132  C   -0.134676
   133  C    0.158896
   134  N   -0.316375
   135  H    0.136042
   136  C   -0.112464
   137  C    0.164874
   138  C   -0.181402
   139  C   -0.249009
   140  C   -0.133344
   141  H    0.150524
   142  H    0.156570
   143  H    0.144245
   144  C    0.363331
   145  C   -0.034637
   146  C   -0.179250
   147  C   -0.170460
   148  C   -0.152489
   149  H    0.147385
   150  C   -0.216767
   151  H    0.172582
   152  C   -0.099010
   153  H    0.123937
   154  H    0.147032
   155  H    0.155498
   156  F   -0.219753
   157  C   -0.280726
   158  H    0.106724
   159  H    0.116043
   160  H    0.101827
   161  C   -0.030815
   162  C   -0.090653
   163  C   -0.004223
   164  H    0.080871
   165  H    0.085018
   166  C    0.060023
   167  H    0.098087
   168  H    0.107219
   169  H    0.094697
   170  H    0.075175
   171  H    0.083592
   172  H    0.075973
   173  N   -0.073949
   174  O   -0.371805
   175  H    0.134401
   176  H    0.324415
 Sum of Mulliken charges =  -0.00000
 Mulliken charges with hydrogens summed into heavy atoms:
               1
     1  C    0.153063
     2  C    0.073993
     3  C    0.169894
     4  C   -0.067271
     5  C    0.254744
     6  N   -0.298866
     8  C   -0.063980
     9  C    0.139114
    10  C   -0.071269
    11  C   -0.062766
    12  C    0.060860
    16  C    0.310345
    17  C    0.128640
    18  C   -0.020912
    19  C   -0.082233
    20  C   -0.012768
    22  C   -0.026988
    24  C   -0.024702
    28  F   -0.237452
    29  C    0.049348
    33  C    0.177358
    34  C    0.149737
    35  C    0.203210
    38  C    0.195790
    45  N   -0.020873
    46  O   -0.341602
    47  I   -0.010050
    49  C    0.011094
    50  C   -0.013806
    51  C   -0.020485
    52  C   -0.070679
    53  C    0.000801
    54  C    0.017412
    57  C    0.091277
    58  C    0.009772
    61  C   -0.120080
    62  C   -0.059165
    64  C    0.039351
    65  C   -0.060339
    66  C   -0.034502
    67  C   -0.137401
    68  C   -0.045932
    69  C   -0.027156
    70  C    0.038148
    71  C    0.007358
    72  C    0.012260
    75  C    0.014847
    79  S    0.898876
    80  O   -0.530267
    81  O   -0.534617
    82  S    1.013022
    83  O   -0.586007
    84  O   -0.605592
    85  N   -0.457445
    86  C    0.119740
    87  C    0.208527
    88  C    0.112880
    89  C    0.271560
    90  C   -0.028321
    91  C   -0.225641
    92  C   -0.106412
    93  C    0.101069
    94  C    0.056652
    96  C   -0.029279
   100  C   -0.089356
   101  C   -0.195324
   102  C   -0.050910
   103  C    0.071449
   104  C    0.025872
   106  C    0.012999
   110  C    0.597487
   111  F   -0.193806
   112  F   -0.191640
   113  F   -0.190786
   114  C    0.566870
   115  F   -0.177757
   116  F   -0.193830
   117  F   -0.189028
   118  N   -0.381208
   119  C    0.336083
   120  C    0.099792
   121  C    0.087088
   122  C    0.230377
   123  O   -0.355062
   124  O   -0.043659
   129  C    0.224666
   130  C   -0.097886
   131  C   -0.012679
   132  C    0.001366
   133  C    0.158896
   134  N   -0.316375
   136  C   -0.112464
   137  C    0.164874
   138  C   -0.030878
   139  C   -0.104764
   140  C    0.023227
   144  C    0.363331
   145  C   -0.034637
   146  C   -0.031865
   147  C    0.002122
   148  C   -0.028551
   150  C   -0.069735
   152  C    0.056489
   156  F   -0.219753
   157  C    0.043869
   161  C    0.135074
   162  C    0.114653
   163  C    0.165650
   166  C    0.219588
   173  N   -0.073949
   174  O   -0.371805
 Electronic spatial extent (au):  <R**2>=         105148.7900
 Charge=              0.0000 electrons
 Dipole moment (field-independent basis, Debye):
    X=             -6.0039    Y=             -5.5306    Z=              0.8806  Tot=              8.2103
 Quadrupole moment (field-independent basis, Debye-Ang):
   XX=           -635.6450   YY=           -605.1716   ZZ=           -622.9124
   XY=             -3.4333   XZ=             14.5932   YZ=            -10.0554
 Traceless Quadrupole moment (field-independent basis, Debye-Ang):
   XX=            -14.4020   YY=             16.0714   ZZ=             -1.6694
   XY=             -3.4333   XZ=             14.5932   YZ=            -10.0554
 Octapole moment (field-independent basis, Debye-Ang**2):
  XXX=           -465.0638  YYY=           -645.3708  ZZZ=           -124.1224  XYY=            -66.4040
  XXY=           -213.0221  XXZ=             48.2336  XZZ=            -14.6652  YZZ=             82.4850
  YYZ=             77.1692  XYZ=            177.8206
 Hexadecapole moment (field-independent basis, Debye-Ang**3):
 XXXX=         -64567.0790 YYYY=         -44376.4841 ZZZZ=         -25955.8746 XXXY=           2669.5042
 XXXZ=           -942.7377 YYYX=            659.8192 YYYZ=           -883.7460 ZZZX=           -948.0945
 ZZZY=           -448.0660 XXYY=         -16151.8252 XXZZ=         -16005.7709 YYZZ=         -11410.2417
 XXYZ=           -447.3383 YYXZ=            279.8528 ZZXY=           -531.4387
 N-N= 2.794454481665D+04 E-N=-7.021222379421D+04  KE= 5.931197249584D+03
 Leave Link  601 at Sun Jun 30 08:44:50 2024, MaxMem= 12348030976 cpu:              71.7 elap:               3.6
 (Enter /cm/shared/apps/spack/cpu/opt/spack/linux-centos8-zen/gcc-8.3.1/gaussian-16.C.01-po5bqktfeugvmjyga3v7eigbecnokxng/g16/l9999.exe)
 Unable to Open any file for archive entry.
 1\1\GINC-EXP-1-50\SP\RB3LYP\def2TZVPP\C86H65F8I1N6O8S2\BIM12\30-Jun-20
 24\0\\#p b3lyp def2tzvpp scf=maxcycle=128 nosymm scrf=(smd,solvent=pro
 pylethanoate) empiricaldispersion=gd3bj\\Title Card Required\\0,1\C,0,
 0.682859,-1.754562,-1.722174\C,0,-0.315539,-1.116056,-0.843209\C,0,-0.
 746361,0.221757,-1.291943\C,0,-0.536976,0.59014,-2.581995\C,0,0.175061
 ,-0.30046,-3.451919\N,0,0.828435,-1.393744,-2.961947\H,0,-0.843076,1.5
 79743,-2.907468\C,0,1.598901,-2.838653,-1.2623\C,0,2.899684,-2.983124,
 -1.820391\C,0,3.649163,-4.12744,-1.531522\C,0,1.957306,-4.932597,-0.02
 0361\C,0,3.176313,-5.108402,-0.661143\H,0,4.649346,-4.218093,-1.958\H,
 0,3.785343,-5.98777,-0.445729\H,0,1.566466,-5.625772,0.724426\C,0,1.20
 8541,-3.805723,-0.328853\C,0,3.595336,-1.893098,-2.558687\C,0,3.632643
 ,-0.612876,-1.989692\C,0,4.339111,-2.14639,-3.716132\C,0,4.401165,0.39
 7201,-2.562329\H,0,3.06328,-0.422685,-1.0785\C,0,5.111441,-1.134704,-4
 .290517\H,0,4.317986,-3.141462,-4.166971\C,0,5.150707,0.134681,-3.7126
 28\H,0,4.409747,1.385708,-2.096454\H,0,5.689738,-1.342922,-5.193027\H,
 0,5.761387,0.921146,-4.160099\F,0,0.040018,-3.670761,0.301551\C,0,-1.4
 61358,1.119548,-0.338337\H,0,-1.532102,2.133632,-0.752265\H,0,-2.47939
 5,0.737754,-0.143742\H,0,-0.923608,1.155188,0.62069\C,0,1.217209,-0.82
 446,-5.616453\C,0,-0.319705,1.038722,-5.465944\C,0,2.262495,0.156527,-
 6.138428\H,0,0.64113,-1.248424,-6.453042\H,0,1.686416,-1.628221,-5.042
 689\C,0,0.786048,1.951166,-5.985808\H,0,-0.878031,0.62173,-6.318314\H,
 0,-1.021776,1.580637,-4.827312\H,0,2.930476,-0.351943,-6.846623\H,0,2.
 864181,0.522144,-5.285348\H,0,0.351095,2.765273,-6.580806\H,0,1.328144
 ,2.389303,-5.125731\N,0,0.291264,-0.082469,-4.757294\O,0,1.663561,1.23
 5547,-6.817219\I,0,-2.263935,-2.259319,-0.963017\H,0,-0.091372,-1.1985
 31,0.22503\C,0,2.366971,4.469205,5.692505\C,0,2.752261,3.952403,4.4784
 \C,0,1.955632,4.154621,3.31597\C,0,0.740398,4.885704,3.4488\C,0,0.3704
 98,5.415625,4.716875\C,0,1.167992,5.214976,5.815266\H,0,2.988591,4.298
 856,6.572894\H,0,3.67228,3.372206,4.407292\C,0,2.311082,3.62265,2.0315
 58\C,0,-0.096428,5.051918,2.322077\H,0,-0.562347,5.977548,4.79463\H,0,
 0.879122,5.620186,6.786253\C,0,0.230431,4.508911,1.092271\C,0,1.458278
 ,3.786003,0.954649\H,0,-1.030583,5.607474,2.426901\C,0,3.588222,2.8393
 5,1.921496\C,0,3.58359,1.471318,1.71287\C,0,4.833149,3.543673,2.013577
 \C,0,4.804445,0.72697,1.64335\C,0,6.04947,2.809006,1.924451\C,0,4.9030
 08,4.958282,2.153644\C,0,6.004399,1.405967,1.75146\C,0,7.29315,3.49587
 7,2.005239\C,0,6.118416,5.596374,2.221731\H,0,3.982602,5.541228,2.1949
 53\H,0,6.938998,0.844805,1.698529\C,0,7.327411,4.85968,2.154218\H,0,8.
 21488,2.914542,1.939889\H,0,6.153434,6.682172,2.323275\H,0,8.283414,5.
 382296,2.212679\S,0,1.863308,2.882058,-0.540567\O,0,3.228647,3.200536,
 -0.843896\O,0,0.902691,3.182297,-1.55634\S,0,2.01265,0.735906,1.27968\
 O,0,1.071349,1.107595,2.305024\O,0,2.175612,-0.678563,1.093015\N,0,1.6
 83299,1.368119,-0.119104\C,0,-0.714651,4.714158,0.034226\C,0,-1.595307
 ,4.946774,-0.767048\C,0,4.884814,-0.702342,1.518033\C,0,5.115154,-1.89
 3218,1.472512\C,0,5.393175,-3.299517,1.443294\C,0,6.370084,-3.837813,0
 .58075\C,0,4.702967,-4.168632,2.301417\C,0,6.644774,-5.2022,0.586168\C
 ,0,4.984952,-5.532157,2.306477\H,0,3.943892,-3.758067,2.966604\C,0,5.9
 56092,-6.051951,1.452769\H,0,7.403676,-5.601565,-0.086923\H,0,4.437517
 ,-6.190695,2.982759\H,0,6.179612,-7.119591,1.455708\C,0,-2.604345,5.17
 7309,-1.754901\C,0,-3.897564,5.610292,-1.39955\C,0,-2.309609,4.968767,
 -3.111729\C,0,-4.863249,5.831224,-2.377276\C,0,-3.279645,5.191146,-4.0
 85493\H,0,-1.305566,4.63965,-3.383108\C,0,-4.555555,5.621935,-3.72207\
 H,0,-5.859382,6.16606,-2.086954\H,0,-3.036403,5.028869,-5.136751\H,0,-
 5.31583,5.795918,-4.484299\C,0,-4.225769,5.836753,0.054483\F,0,-4.0284
 33,4.738678,0.794009\F,0,-5.501766,6.192142,0.225223\F,0,-3.473381,6.8
 00777,0.594664\C,0,7.119896,-2.924242,-0.355647\F,0,6.301547,-2.266107
 ,-1.179505\F,0,7.981735,-3.600195,-1.120939\F,0,7.82845,-2.002501,0.30
 6899\N,0,-4.523653,-3.503028,-0.715239\C,0,-4.745869,-4.283587,0.31410
 3\C,0,-5.649492,-5.457371,0.022594\C,0,-6.111515,-5.163676,-1.399258\C
 ,0,-5.256634,-3.966409,-1.812528\O,0,-5.21234,-3.467231,-2.908152\O,0,
 -4.256035,-4.129329,1.48102\H,0,-5.053807,-6.378588,0.108018\H,0,-6.44
 9398,-5.507355,0.772965\H,0,-7.167289,-4.859602,-1.449774\H,0,-5.96529
 2,-5.985741,-2.11117\C,0,-4.438392,-0.899591,2.050072\C,0,-4.227504,0.
 445653,2.282403\C,0,-2.945157,0.880071,2.669247\C,0,-1.959336,-0.06705
 5,2.85863\C,0,-2.23495,-1.440273,2.624198\N,0,-3.462234,-1.825724,2.21
 3673\H,0,-0.96578,0.260597,3.154232\C,0,-5.768095,-1.409484,1.594992\C
 ,0,-6.415897,-0.974253,0.418076\C,0,-7.605461,-1.597756,0.018114\C,0,-
 7.570131,-3.032068,1.959249\C,0,-8.175277,-2.620272,0.773954\H,0,-8.08
 6177,-1.266882,-0.903957\H,0,-9.103555,-3.090839,0.445777\H,0,-7.99074
 1,-3.814747,2.591615\C,0,-6.386548,-2.419529,2.339582\C,0,-5.87266,0.1
 21077,-0.446186\C,0,-6.138501,1.463049,-0.143596\C,0,-5.14619,-0.18219
 8,-1.602913\C,0,-5.646103,2.483576,-0.954546\H,0,-6.739987,1.70842,0.7
 34625\C,0,-4.640266,0.841859,-2.406839\H,0,-4.980753,-1.224598,-1.8800
 85\C,0,-4.878392,2.176391,-2.079849\H,0,-5.870022,3.522606,-0.70801\H,
 0,-4.059998,0.586922,-3.296216\H,0,-4.48236,2.979096,-2.706353\F,0,-5.
 802501,-2.821975,3.472792\C,0,-2.645614,2.343694,2.802754\H,0,-1.68991
 ,2.513462,3.31552\H,0,-2.5783,2.790761,1.796505\H,0,-3.448277,2.870069
 ,3.338808\C,0,-1.635181,-3.803208,2.845209\C,0,0.031414,-2.028672,3.33
 857\C,0,-0.564846,-4.581581,3.591448\H,0,-1.745593,-4.211241,1.828632\
 H,0,-2.600339,-3.922128,3.362982\C,0,1.118465,-3.039972,2.98055\H,0,0.
 370265,-1.0728,2.922677\H,0,-0.046353,-1.905359,4.433933\H,0,-0.794725
 ,-5.653579,3.53197\H,0,-0.562453,-4.300773,4.661264\H,0,1.504412,-2.82
 393,1.975121\H,0,1.951245,-2.883109,3.688821\N,0,-1.270107,-2.389008,2
 .78527\O,0,0.700995,-4.392081,3.015773\H,0,-5.040457,1.157866,2.161704
 \H,0,-3.825233,-3.143024,1.741194\\Version=ES64L-G16RevC.01\HF=-6142.0
 068933\RMSD=1.915e-09\Dipole=-2.3621071,-2.175897,0.3464658\Quadrupole
 =-10.7075316,11.9486815,-1.2411499,-2.5525446,10.8496893,-7.4759516\PG
 =C01 [X(C86H65F8I1N6O8S2)]\\@
 The archive entry for this job was punched.


 A CHEMICAL PHYSICIST MAKES PRECISE MEASUREMENTS ON IMPURE COMPOUNDS.
 A THEORETICAL PHYSICAL CHEMIST MAKES IMPRECISE
     MEASUREMENTS ON PURE COMPOUNDS.
 AN EXPERIMENTAL PHYSICAL CHEMIST MAKES IMPRECISE
     MEASUREMENTS ON IMPURE COMPOUNDS.
 Job cpu time:       5 days 13 hours  8 minutes 25.9 seconds.
 Elapsed time:       0 days  2 hours 48 minutes 54.0 seconds.
 File lengths (MBytes):  RWF=  12546 Int=      0 D2E=      0 Chk=   1110 Scr=      1
 Normal termination of Gaussian 16 at Sun Jun 30 08:44:52 2024.
