 Entering Gaussian System, Link 0=g16
 Initial command:
 /ihome/crc/install/gaussian/c01/avx2/tar/g16/l1.exe "/scratch/slurm-18082363/Gau-18028.inp" -scrdir="/scratch/slurm-18082363/"
 Entering Link 1 = /ihome/crc/install/gaussian/c01/avx2/tar/g16/l1.exe PID=     18029.
  
 Copyright (c) 1988-2019, Gaussian, Inc.  All Rights Reserved.
  
 This is part of the Gaussian(R) 16 program.  It is based on
 the Gaussian(R) 09 system (copyright 2009, Gaussian, Inc.),
 the Gaussian(R) 03 system (copyright 2003, Gaussian, Inc.),
 the Gaussian(R) 98 system (copyright 1998, Gaussian, Inc.),
 the Gaussian(R) 94 system (copyright 1995, Gaussian, Inc.),
 the Gaussian 92(TM) system (copyright 1992, Gaussian, Inc.),
 the Gaussian 90(TM) system (copyright 1990, Gaussian, Inc.),
 the Gaussian 88(TM) system (copyright 1988, Gaussian, Inc.),
 the Gaussian 86(TM) system (copyright 1986, Carnegie Mellon
 University), and the Gaussian 82(TM) system (copyright 1983,
 Carnegie Mellon University). Gaussian is a federally registered
 trademark of Gaussian, Inc.
  
 This software contains proprietary and confidential information,
 including trade secrets, belonging to Gaussian, Inc.
  
 This software is provided under written license and may be
 used, copied, transmitted, or stored only in accord with that
 written license.
  
 The following legend is applicable only to US Government
 contracts under FAR:
  
                    RESTRICTED RIGHTS LEGEND
  
 Use, reproduction and disclosure by the US Government is
 subject to restrictions as set forth in subparagraphs (a)
 and (c) of the Commercial Computer Software - Restricted
 Rights clause in FAR 52.227-19.
  
 Gaussian, Inc.
 340 Quinnipiac St., Bldg. 40, Wallingford CT 06492
  
  
 ---------------------------------------------------------------
 Warning -- This program may not be used in any manner that
 competes with the business of Gaussian, Inc. or will provide
 assistance to any competitor of Gaussian, Inc.  The licensee
 of this program is prohibited from giving any competitor of
 Gaussian, Inc. access to this program.  By using this program,
 the user acknowledges that Gaussian, Inc. is engaged in the
 business of creating and licensing software in the field of
 computational chemistry and represents and warrants to the
 licensee that it is not a competitor of Gaussian, Inc. and that
 it will not use this program in any manner prohibited above.
 ---------------------------------------------------------------
  

 Cite this work as:
 Gaussian 16, Revision C.01,
 M. J. Frisch, G. W. Trucks, H. B. Schlegel, G. E. Scuseria, 
 M. A. Robb, J. R. Cheeseman, G. Scalmani, V. Barone, 
 G. A. Petersson, H. Nakatsuji, X. Li, M. Caricato, A. V. Marenich, 
 J. Bloino, B. G. Janesko, R. Gomperts, B. Mennucci, H. P. Hratchian, 
 J. V. Ortiz, A. F. Izmaylov, J. L. Sonnenberg, D. Williams-Young, 
 F. Ding, F. Lipparini, F. Egidi, J. Goings, B. Peng, A. Petrone, 
 T. Henderson, D. Ranasinghe, V. G. Zakrzewski, J. Gao, N. Rega, 
 G. Zheng, W. Liang, M. Hada, M. Ehara, K. Toyota, R. Fukuda, 
 J. Hasegawa, M. Ishida, T. Nakajima, Y. Honda, O. Kitao, H. Nakai, 
 T. Vreven, K. Throssell, J. A. Montgomery, Jr., J. E. Peralta, 
 F. Ogliaro, M. J. Bearpark, J. J. Heyd, E. N. Brothers, K. N. Kudin, 
 V. N. Staroverov, T. A. Keith, R. Kobayashi, J. Normand, 
 K. Raghavachari, A. P. Rendell, J. C. Burant, S. S. Iyengar, 
 J. Tomasi, M. Cossi, J. M. Millam, M. Klene, C. Adamo, R. Cammi, 
 J. W. Ochterski, R. L. Martin, K. Morokuma, O. Farkas, 
 J. B. Foresman, and D. J. Fox, Gaussian, Inc., Wallingford CT, 2019.
 
 ******************************************
 Gaussian 16:  ES64L-G16RevC.01  3-Jul-2019
                23-Feb-2025 
 ******************************************
 %nprocshared=32
 Will use up to   32 processors via shared memory.
 %mem=48GB
 ----------------------------------------------------------------------
 #p b3lyp def2tzvpp scf=maxcycle=128 nosymm scrf=(smd,solvent=propyleth
 anoate) empiricaldispersion=gd3bj
 ----------------------------------------------------------------------
 1/38=1,172=1/1;
 2/12=2,15=1,17=6,18=5,40=1/2;
 3/5=44,7=202,11=2,25=1,30=1,70=32201,72=169,74=-5,124=41/1,2,3;
 4//1;
 5/5=2,7=128,38=5,53=169/2;
 6/7=2,8=2,9=2,10=2,28=1/1;
 99/5=1,9=1/99;
 Leave Link    1 at Sun Feb 23 10:14:35 2025, MaxMem=  6442450944 cpu:               1.0 elap:               0.0
 (Enter /ihome/crc/install/gaussian/c01/avx2/tar/g16/l101.exe)
 ---------------------------
 alkyneCF3_S-ax-S_01_iodi_TS
 ---------------------------
 Symbolic Z-matrix:
 Charge =  0 Multiplicity = 1
 C                     0.3388   -3.91126  -0.45304 
 C                    -0.68926  -3.13889   0.26355 
 C                    -0.32157  -2.75182   1.6327 
 C                     0.90454  -3.08319   2.12108 
 C                     1.85811  -3.72525   1.2676 
 N                     1.49057  -4.22978   0.04381 
 H                     1.16574  -2.77935   3.13122 
 C                     0.02896  -4.42934  -1.82298 
 C                     0.01331  -3.60422  -2.9612 
 C                    -0.41908  -4.14363  -4.18112 
 C                    -0.7211   -6.31947  -3.17337 
 C                    -0.79216  -5.48104  -4.28418 
 H                    -0.42884  -3.50296  -5.0644 
 H                    -1.12379  -5.88196  -5.24299 
 H                    -0.9905   -7.37492  -3.2175 
 C                    -0.30409  -5.77584  -1.96967 
 C                     0.53042  -2.20915  -2.91571 
 C                     1.82927  -1.96353  -2.4498 
 C                    -0.22815  -1.14207  -3.41625 
 C                     2.36069  -0.67545  -2.48717 
 H                     2.43008  -2.79292  -2.07041 
 C                     0.30345   0.14416  -3.44581 
 H                    -1.2468   -1.32446  -3.76535 
 C                     1.59913   0.37964  -2.98422 
 H                     3.3684   -0.49391  -2.11159 
 H                    -0.3049    0.97363  -3.80755 
 H                     2.00744   1.39206  -2.99558 
 F                    -0.24965  -6.56779  -0.8904 
 C                    -1.25826  -1.94805   2.46687 
 H                    -1.01415  -0.89069   2.29886 
 H                    -2.30699  -2.11739   2.20104 
 H                    -1.09882  -2.13319   3.53819 
 C                     4.09512  -4.63206   0.79985 
 C                     3.76776  -3.24216   2.75709 
 C                     4.7497   -5.66311   1.71167 
 H                     4.85952  -3.93917   0.41504 
 H                     3.58049  -5.11096  -0.0366 
 C                     4.43835  -4.32572   3.59059 
 H                     4.52656  -2.53772   2.38219 
 H                     3.04746  -2.67261   3.34786 
 H                     5.52812  -6.20341   1.15711 
 H                     3.98505  -6.39233   2.04235 
 H                     4.98689  -3.86573   4.42253 
 H                     3.66437  -4.99862   4.00826 
 N                     3.13738  -3.85394   1.58867 
 O                     5.36125  -5.05519   2.82148 
 H                    -1.12672  -2.31399  -0.3223 
 C                     0.10229   4.03027   5.33318 
 C                     0.33543   3.60386   4.04735 
 C                    -0.63128   2.82339   3.3524 
 C                    -1.83319   2.47507   4.03171 
 C                    -2.05288   2.94046   5.35857 
 C                    -1.10776   3.70509   5.99522 
 H                     0.85912   4.62118   5.85143 
 H                     1.27729   3.85375   3.55858 
 C                    -0.42557   2.35291   2.01153 
 C                    -2.78353   1.65108   3.38506 
 H                    -2.98463   2.6685    5.85867 
 H                    -1.27903   4.05644   7.01397 
 C                    -2.56022   1.14988   2.11649 
 C                    -1.3528    1.50688   1.428 
 H                    -3.70336   1.38501   3.90893 
 C                     0.81286   2.80823   1.28809 
 C                     1.83942   1.94513   0.94535 
 C                     0.90017   4.1967    0.9312 
 C                     3.01604   2.42543   0.28562 
 C                     2.08188   4.67733   0.29749 
 C                    -0.1619    5.11688   1.1613 
 C                     3.1262    3.77342  -0.00225 
 C                     2.18844   6.05411  -0.04744 
 C                    -0.03668   6.43906   0.80705 
 H                    -1.09114   4.76658   1.61048 
 H                     4.02984   4.14225  -0.49088 
 C                     1.15357   6.91864   0.20573 
 H                     3.10657   6.40151  -0.52526 
 H                    -0.86543   7.12597   0.98564 
 H                     1.23802   7.9724   -0.06446 
 S                    -0.8791    0.76358  -0.14066 
 O                    -0.56197   1.8683   -0.99576 
 O                    -1.92284  -0.11263  -0.58427 
 S                     1.53545   0.19755   1.2169 
 O                     1.14024   0.09493   2.59572 
 O                     2.68485  -0.57765   0.85254 
 N                     0.36734  -0.13709   0.21601 
 C                    -3.54625   0.25464   1.58068 
 C                    -4.37948  -0.54392   1.20585 
 C                     4.10424   1.57981  -0.1061 
 C                     5.05303   0.92308  -0.48025 
 C                     6.07122   0.01087  -0.90356 
 C                     5.82849  -1.36745  -0.78161 
 C                     7.29591   0.44128  -1.44969 
 C                     6.78652  -2.28797  -1.1975 
 H                     4.87391  -1.68723  -0.35659 
 C                     8.24996  -0.48464  -1.8607 
 C                     7.9962   -1.85048  -1.7361 
 H                     6.58782  -3.35692  -1.10261 
 H                     9.1933   -0.13633  -2.28146 
 H                     8.74605  -2.57195  -2.06249 
 C                    -5.27969  -1.49572   0.62506 
 C                    -5.46706  -1.48117  -0.76618 
 C                    -5.96135  -2.46382   1.38924 
 C                    -6.32969  -2.38865  -1.37305 
 H                    -4.91531  -0.75057  -1.35825 
 C                    -6.83775  -3.35555   0.77725 
 C                    -7.02635  -3.31891  -0.60356 
 H                    -6.45785  -2.36892  -2.45615 
 H                    -7.36981  -4.08807   1.38628 
 H                    -7.70488  -4.02758  -1.07991 
 C                     7.56437   1.9177   -1.58232 
 F                     7.53523   2.53722  -0.39788 
 F                     8.76102   2.16068  -2.12132 
 F                     6.65671   2.52361  -2.35479 
 C                    -5.7194   -2.55128   2.87239 
 F                    -6.1256   -1.45397   3.52185 
 F                    -6.35963  -3.58875   3.42377 
 F                    -4.42155  -2.70137   3.15905 
 I                    -2.53106  -4.45357   0.40795 
 N                    -4.65458  -5.8557    0.70447 
 C                    -5.01666  -6.09628   1.94148 
 C                    -6.37164  -6.75352   2.07467 
 C                    -6.8119   -6.88779   0.6205 
 C                    -5.64443  -6.29546  -0.17571 
 O                    -5.57554  -6.22162  -1.37464 
 O                    -4.26949  -5.76774   2.91389 
 H                    -6.26961  -7.71526   2.59376 
 H                    -7.01704  -6.11033   2.69156 
 H                    -7.72646  -6.32723   0.38078 
 H                    -6.96852  -7.92796   0.30328 
 C                    -4.85485  -7.61632   5.74145 
 C                    -5.24457  -7.79089   7.05692 
 C                    -5.11707  -6.70669   7.95211 
 C                    -4.54714  -5.52667   7.50363 
 C                    -4.11305  -5.42769   6.15816 
 N                    -4.35514  -6.44279   5.30945 
 H                    -4.37801  -4.70579   8.19916 
 C                    -4.9713   -8.67673   4.70097 
 C                    -3.96208  -8.91599   3.73441 
 C                    -4.22603  -9.80281   2.68118 
 C                    -6.42499  -10.2842   3.55086 
 C                    -5.44188  -10.47717   2.58525 
 H                    -3.44442  -9.99036   1.94368 
 H                    -5.61834  -11.16929   1.76076 
 H                    -7.38849  -10.79335   3.51758 
 C                    -6.16857  -9.39164   4.58159 
 C                    -2.60156  -8.30642   3.80942 
 C                    -1.87431  -8.3137    5.00917 
 C                    -2.00485  -7.76452   2.66236 
 C                    -0.58377  -7.79063   5.05888 
 H                    -2.32175  -8.74447   5.9081 
 C                    -0.7142   -7.23639   2.71284 
 H                    -2.56271  -7.72797   1.72303 
 C                    -0.00028  -7.24871   3.91073 
 H                    -0.02827  -7.81133   5.9983 
 H                    -0.27602  -6.80793   1.8091 
 H                     1.0104   -6.83737   3.95101 
 F                    -7.14217  -9.17484   5.47214 
 C                    -5.56076  -6.86486   9.37719 
 H                    -6.64437  -7.05191   9.41593 
 H                    -5.06596  -7.73119   9.83989 
 H                    -5.33847  -5.97064   9.97239 
 C                    -2.36657  -4.54401   4.66537 
 C                    -3.39472  -3.054     6.28972 
 C                    -1.02695  -4.19769   5.30091 
 H                    -2.56243  -3.90821   3.79052 
 H                    -2.345    -5.58291   4.32052 
 C                    -2.01167  -2.77039   6.85888 
 H                    -3.62099  -2.30137   5.51575 
 H                    -4.16634  -2.9767    7.06455 
 H                    -0.23627  -4.22728   4.53729 
 H                    -0.78575  -4.94575   6.08245 
 H                    -1.95764  -1.74088   7.23766 
 H                    -1.80048  -3.46636   7.69455 
 N                    -3.43259  -4.36205   5.65317 
 O                    -1.02576  -2.90437   5.86127 
 H                    -5.64618  -8.74597   7.39315 
 H                    -4.38564  -6.12946   3.9621 
 
 ITRead=  0  0  0  0  0  0  0  0  0  0  0  0  0  0  0  0  0  0  0  0
 ITRead=  0  0  0  0  0  0  0  0  0  0  0  0  0  0  0  0  0  0  0  0
 ITRead=  0  0  0  0  0  0  0  0  0  0  0  0  0  0  0  0  0  0  0  0
 ITRead=  0  0  0  0  0  0  0  0  0  0  0  0  0  0  0  0  0  0  0  0
 ITRead=  0  0  0  0  0  0  0  0  0  0  0  0  0  0  0  0  0  0  0  0
 ITRead=  0  0  0  0  0  0  0  0  0  0  0  0  0  0  0  0  0  0  0  0
 ITRead=  0  0  0  0  0  0  0  0  0  0  0  0  0  0  0  0  0  0  0  0
 ITRead=  0  0  0  0  0  0  0  0  0  0  0  0  0  0  0  0  0  0  0  0
 ITRead=  0  0  0  0  0  0  0  0  0  0  0  0  0  0  0  0
 MicOpt= -1 -1 -1 -1 -1 -1 -1 -1 -1 -1 -1 -1 -1 -1 -1 -1 -1 -1 -1 -1
 MicOpt= -1 -1 -1 -1 -1 -1 -1 -1 -1 -1 -1 -1 -1 -1 -1 -1 -1 -1 -1 -1
 MicOpt= -1 -1 -1 -1 -1 -1 -1 -1 -1 -1 -1 -1 -1 -1 -1 -1 -1 -1 -1 -1
 MicOpt= -1 -1 -1 -1 -1 -1 -1 -1 -1 -1 -1 -1 -1 -1 -1 -1 -1 -1 -1 -1
 MicOpt= -1 -1 -1 -1 -1 -1 -1 -1 -1 -1 -1 -1 -1 -1 -1 -1 -1 -1 -1 -1
 MicOpt= -1 -1 -1 -1 -1 -1 -1 -1 -1 -1 -1 -1 -1 -1 -1 -1 -1 -1 -1 -1
 MicOpt= -1 -1 -1 -1 -1 -1 -1 -1 -1 -1 -1 -1 -1 -1 -1 -1 -1 -1 -1 -1
 MicOpt= -1 -1 -1 -1 -1 -1 -1 -1 -1 -1 -1 -1 -1 -1 -1 -1 -1 -1 -1 -1
 MicOpt= -1 -1 -1 -1 -1 -1 -1 -1 -1 -1 -1 -1 -1 -1 -1 -1
 NAtoms=    176 NQM=      176 NQMF=       0 NMMI=      0 NMMIF=      0
                NMic=       0 NMicF=      0.
                    Isotopes and Nuclear Properties:
 (Nuclear quadrupole moments (NQMom) in fm**2, nuclear magnetic moments (NMagM)
  in nuclear magnetons)

  Atom         1           2           3           4           5           6           7           8           9          10
 IAtWgt=          12          12          12          12          12          14           1          12          12          12
 AtmWgt=  12.0000000  12.0000000  12.0000000  12.0000000  12.0000000  14.0030740   1.0078250  12.0000000  12.0000000  12.0000000
 NucSpn=           0           0           0           0           0           2           1           0           0           0
 AtZEff=  -0.0000000  -0.0000000  -0.0000000  -0.0000000  -0.0000000  -0.0000000  -0.0000000  -0.0000000  -0.0000000  -0.0000000
 NQMom=    0.0000000   0.0000000   0.0000000   0.0000000   0.0000000   2.0440000   0.0000000   0.0000000   0.0000000   0.0000000
 NMagM=    0.0000000   0.0000000   0.0000000   0.0000000   0.0000000   0.4037610   2.7928460   0.0000000   0.0000000   0.0000000
 AtZNuc=   6.0000000   6.0000000   6.0000000   6.0000000   6.0000000   7.0000000   1.0000000   6.0000000   6.0000000   6.0000000

  Atom        11          12          13          14          15          16          17          18          19          20
 IAtWgt=          12          12           1           1           1          12          12          12          12          12
 AtmWgt=  12.0000000  12.0000000   1.0078250   1.0078250   1.0078250  12.0000000  12.0000000  12.0000000  12.0000000  12.0000000
 NucSpn=           0           0           1           1           1           0           0           0           0           0
 AtZEff=  -0.0000000  -0.0000000  -0.0000000  -0.0000000  -0.0000000  -0.0000000  -0.0000000  -0.0000000  -0.0000000  -0.0000000
 NQMom=    0.0000000   0.0000000   0.0000000   0.0000000   0.0000000   0.0000000   0.0000000   0.0000000   0.0000000   0.0000000
 NMagM=    0.0000000   0.0000000   2.7928460   2.7928460   2.7928460   0.0000000   0.0000000   0.0000000   0.0000000   0.0000000
 AtZNuc=   6.0000000   6.0000000   1.0000000   1.0000000   1.0000000   6.0000000   6.0000000   6.0000000   6.0000000   6.0000000

  Atom        21          22          23          24          25          26          27          28          29          30
 IAtWgt=           1          12           1          12           1           1           1          19          12           1
 AtmWgt=   1.0078250  12.0000000   1.0078250  12.0000000   1.0078250   1.0078250   1.0078250  18.9984032  12.0000000   1.0078250
 NucSpn=           1           0           1           0           1           1           1           1           0           1
 AtZEff=  -0.0000000  -0.0000000  -0.0000000  -0.0000000  -0.0000000  -0.0000000  -0.0000000  -0.0000000  -0.0000000  -0.0000000
 NQMom=    0.0000000   0.0000000   0.0000000   0.0000000   0.0000000   0.0000000   0.0000000   0.0000000   0.0000000   0.0000000
 NMagM=    2.7928460   0.0000000   2.7928460   0.0000000   2.7928460   2.7928460   2.7928460   2.6288670   0.0000000   2.7928460
 AtZNuc=   1.0000000   6.0000000   1.0000000   6.0000000   1.0000000   1.0000000   1.0000000   9.0000000   6.0000000   1.0000000

  Atom        31          32          33          34          35          36          37          38          39          40
 IAtWgt=           1           1          12          12          12           1           1          12           1           1
 AtmWgt=   1.0078250   1.0078250  12.0000000  12.0000000  12.0000000   1.0078250   1.0078250  12.0000000   1.0078250   1.0078250
 NucSpn=           1           1           0           0           0           1           1           0           1           1
 AtZEff=  -0.0000000  -0.0000000  -0.0000000  -0.0000000  -0.0000000  -0.0000000  -0.0000000  -0.0000000  -0.0000000  -0.0000000
 NQMom=    0.0000000   0.0000000   0.0000000   0.0000000   0.0000000   0.0000000   0.0000000   0.0000000   0.0000000   0.0000000
 NMagM=    2.7928460   2.7928460   0.0000000   0.0000000   0.0000000   2.7928460   2.7928460   0.0000000   2.7928460   2.7928460
 AtZNuc=   1.0000000   1.0000000   6.0000000   6.0000000   6.0000000   1.0000000   1.0000000   6.0000000   1.0000000   1.0000000

  Atom        41          42          43          44          45          46          47          48          49          50
 IAtWgt=           1           1           1           1          14          16           1          12          12          12
 AtmWgt=   1.0078250   1.0078250   1.0078250   1.0078250  14.0030740  15.9949146   1.0078250  12.0000000  12.0000000  12.0000000
 NucSpn=           1           1           1           1           2           0           1           0           0           0
 AtZEff=  -0.0000000  -0.0000000  -0.0000000  -0.0000000  -0.0000000  -0.0000000  -0.0000000  -0.0000000  -0.0000000  -0.0000000
 NQMom=    0.0000000   0.0000000   0.0000000   0.0000000   2.0440000   0.0000000   0.0000000   0.0000000   0.0000000   0.0000000
 NMagM=    2.7928460   2.7928460   2.7928460   2.7928460   0.4037610   0.0000000   2.7928460   0.0000000   0.0000000   0.0000000
 AtZNuc=   1.0000000   1.0000000   1.0000000   1.0000000   7.0000000   8.0000000   1.0000000   6.0000000   6.0000000   6.0000000

  Atom        51          52          53          54          55          56          57          58          59          60
 IAtWgt=          12          12          12           1           1          12          12           1           1          12
 AtmWgt=  12.0000000  12.0000000  12.0000000   1.0078250   1.0078250  12.0000000  12.0000000   1.0078250   1.0078250  12.0000000
 NucSpn=           0           0           0           1           1           0           0           1           1           0
 AtZEff=  -0.0000000  -0.0000000  -0.0000000  -0.0000000  -0.0000000  -0.0000000  -0.0000000  -0.0000000  -0.0000000  -0.0000000
 NQMom=    0.0000000   0.0000000   0.0000000   0.0000000   0.0000000   0.0000000   0.0000000   0.0000000   0.0000000   0.0000000
 NMagM=    0.0000000   0.0000000   0.0000000   2.7928460   2.7928460   0.0000000   0.0000000   2.7928460   2.7928460   0.0000000
 AtZNuc=   6.0000000   6.0000000   6.0000000   1.0000000   1.0000000   6.0000000   6.0000000   1.0000000   1.0000000   6.0000000

  Atom        61          62          63          64          65          66          67          68          69          70
 IAtWgt=          12           1          12          12          12          12          12          12          12          12
 AtmWgt=  12.0000000   1.0078250  12.0000000  12.0000000  12.0000000  12.0000000  12.0000000  12.0000000  12.0000000  12.0000000
 NucSpn=           0           1           0           0           0           0           0           0           0           0
 AtZEff=  -0.0000000  -0.0000000  -0.0000000  -0.0000000  -0.0000000  -0.0000000  -0.0000000  -0.0000000  -0.0000000  -0.0000000
 NQMom=    0.0000000   0.0000000   0.0000000   0.0000000   0.0000000   0.0000000   0.0000000   0.0000000   0.0000000   0.0000000
 NMagM=    0.0000000   2.7928460   0.0000000   0.0000000   0.0000000   0.0000000   0.0000000   0.0000000   0.0000000   0.0000000
 AtZNuc=   6.0000000   1.0000000   6.0000000   6.0000000   6.0000000   6.0000000   6.0000000   6.0000000   6.0000000   6.0000000

  Atom        71          72          73          74          75          76          77          78          79          80
 IAtWgt=          12           1           1          12           1           1           1          32          16          16
 AtmWgt=  12.0000000   1.0078250   1.0078250  12.0000000   1.0078250   1.0078250   1.0078250  31.9720718  15.9949146  15.9949146
 NucSpn=           0           1           1           0           1           1           1           0           0           0
 AtZEff=  -0.0000000  -0.0000000  -0.0000000  -0.0000000  -0.0000000  -0.0000000  -0.0000000  -0.0000000  -0.0000000  -0.0000000
 NQMom=    0.0000000   0.0000000   0.0000000   0.0000000   0.0000000   0.0000000   0.0000000   0.0000000   0.0000000   0.0000000
 NMagM=    0.0000000   2.7928460   2.7928460   0.0000000   2.7928460   2.7928460   2.7928460   0.0000000   0.0000000   0.0000000
 AtZNuc=   6.0000000   1.0000000   1.0000000   6.0000000   1.0000000   1.0000000   1.0000000  16.0000000   8.0000000   8.0000000

  Atom        81          82          83          84          85          86          87          88          89          90
 IAtWgt=          32          16          16          14          12          12          12          12          12          12
 AtmWgt=  31.9720718  15.9949146  15.9949146  14.0030740  12.0000000  12.0000000  12.0000000  12.0000000  12.0000000  12.0000000
 NucSpn=           0           0           0           2           0           0           0           0           0           0
 AtZEff=  -0.0000000  -0.0000000  -0.0000000  -0.0000000  -0.0000000  -0.0000000  -0.0000000  -0.0000000  -0.0000000  -0.0000000
 NQMom=    0.0000000   0.0000000   0.0000000   2.0440000   0.0000000   0.0000000   0.0000000   0.0000000   0.0000000   0.0000000
 NMagM=    0.0000000   0.0000000   0.0000000   0.4037610   0.0000000   0.0000000   0.0000000   0.0000000   0.0000000   0.0000000
 AtZNuc=  16.0000000   8.0000000   8.0000000   7.0000000   6.0000000   6.0000000   6.0000000   6.0000000   6.0000000   6.0000000

  Atom        91          92          93          94          95          96          97          98          99         100
 IAtWgt=          12          12           1          12          12           1           1           1          12          12
 AtmWgt=  12.0000000  12.0000000   1.0078250  12.0000000  12.0000000   1.0078250   1.0078250   1.0078250  12.0000000  12.0000000
 NucSpn=           0           0           1           0           0           1           1           1           0           0
 AtZEff=  -0.0000000  -0.0000000  -0.0000000  -0.0000000  -0.0000000  -0.0000000  -0.0000000  -0.0000000  -0.0000000  -0.0000000
 NQMom=    0.0000000   0.0000000   0.0000000   0.0000000   0.0000000   0.0000000   0.0000000   0.0000000   0.0000000   0.0000000
 NMagM=    0.0000000   0.0000000   2.7928460   0.0000000   0.0000000   2.7928460   2.7928460   2.7928460   0.0000000   0.0000000
 AtZNuc=   6.0000000   6.0000000   1.0000000   6.0000000   6.0000000   1.0000000   1.0000000   1.0000000   6.0000000   6.0000000

  Atom       101         102         103         104         105         106         107         108         109         110
 IAtWgt=          12          12           1          12          12           1           1           1          12          19
 AtmWgt=  12.0000000  12.0000000   1.0078250  12.0000000  12.0000000   1.0078250   1.0078250   1.0078250  12.0000000  18.9984032
 NucSpn=           0           0           1           0           0           1           1           1           0           1
 AtZEff=  -0.0000000  -0.0000000  -0.0000000  -0.0000000  -0.0000000  -0.0000000  -0.0000000  -0.0000000  -0.0000000  -0.0000000
 NQMom=    0.0000000   0.0000000   0.0000000   0.0000000   0.0000000   0.0000000   0.0000000   0.0000000   0.0000000   0.0000000
 NMagM=    0.0000000   0.0000000   2.7928460   0.0000000   0.0000000   2.7928460   2.7928460   2.7928460   0.0000000   2.6288670
 AtZNuc=   6.0000000   6.0000000   1.0000000   6.0000000   6.0000000   1.0000000   1.0000000   1.0000000   6.0000000   9.0000000

  Atom       111         112         113         114         115         116         117         118         119         120
 IAtWgt=          19          19          12          19          19          19         127          14          12          12
 AtmWgt=  18.9984032  18.9984032  12.0000000  18.9984032  18.9984032  18.9984032 126.9004000  14.0030740  12.0000000  12.0000000
 NucSpn=           1           1           0           1           1           1           5           2           0           0
 AtZEff=  -0.0000000  -0.0000000  -0.0000000  -0.0000000  -0.0000000  -0.0000000  -0.0000000  -0.0000000  -0.0000000  -0.0000000
 NQMom=    0.0000000   0.0000000   0.0000000   0.0000000   0.0000000   0.0000000 -71.0000000   2.0440000   0.0000000   0.0000000
 NMagM=    2.6288670   2.6288670   0.0000000   2.6288670   2.6288670   2.6288670   2.8132800   0.4037610   0.0000000   0.0000000
 AtZNuc=   9.0000000   9.0000000   6.0000000   9.0000000   9.0000000   9.0000000  53.0000000   7.0000000   6.0000000   6.0000000

  Atom       121         122         123         124         125         126         127         128         129         130
 IAtWgt=          12          12          16          16           1           1           1           1          12          12
 AtmWgt=  12.0000000  12.0000000  15.9949146  15.9949146   1.0078250   1.0078250   1.0078250   1.0078250  12.0000000  12.0000000
 NucSpn=           0           0           0           0           1           1           1           1           0           0
 AtZEff=  -0.0000000  -0.0000000  -0.0000000  -0.0000000  -0.0000000  -0.0000000  -0.0000000  -0.0000000  -0.0000000  -0.0000000
 NQMom=    0.0000000   0.0000000   0.0000000   0.0000000   0.0000000   0.0000000   0.0000000   0.0000000   0.0000000   0.0000000
 NMagM=    0.0000000   0.0000000   0.0000000   0.0000000   2.7928460   2.7928460   2.7928460   2.7928460   0.0000000   0.0000000
 AtZNuc=   6.0000000   6.0000000   8.0000000   8.0000000   1.0000000   1.0000000   1.0000000   1.0000000   6.0000000   6.0000000

  Atom       131         132         133         134         135         136         137         138         139         140
 IAtWgt=          12          12          12          14           1          12          12          12          12          12
 AtmWgt=  12.0000000  12.0000000  12.0000000  14.0030740   1.0078250  12.0000000  12.0000000  12.0000000  12.0000000  12.0000000
 NucSpn=           0           0           0           2           1           0           0           0           0           0
 AtZEff=  -0.0000000  -0.0000000  -0.0000000  -0.0000000  -0.0000000  -0.0000000  -0.0000000  -0.0000000  -0.0000000  -0.0000000
 NQMom=    0.0000000   0.0000000   0.0000000   2.0440000   0.0000000   0.0000000   0.0000000   0.0000000   0.0000000   0.0000000
 NMagM=    0.0000000   0.0000000   0.0000000   0.4037610   2.7928460   0.0000000   0.0000000   0.0000000   0.0000000   0.0000000
 AtZNuc=   6.0000000   6.0000000   6.0000000   7.0000000   1.0000000   6.0000000   6.0000000   6.0000000   6.0000000   6.0000000

  Atom       141         142         143         144         145         146         147         148         149         150
 IAtWgt=           1           1           1          12          12          12          12          12           1          12
 AtmWgt=   1.0078250   1.0078250   1.0078250  12.0000000  12.0000000  12.0000000  12.0000000  12.0000000   1.0078250  12.0000000
 NucSpn=           1           1           1           0           0           0           0           0           1           0
 AtZEff=  -0.0000000  -0.0000000  -0.0000000  -0.0000000  -0.0000000  -0.0000000  -0.0000000  -0.0000000  -0.0000000  -0.0000000
 NQMom=    0.0000000   0.0000000   0.0000000   0.0000000   0.0000000   0.0000000   0.0000000   0.0000000   0.0000000   0.0000000
 NMagM=    2.7928460   2.7928460   2.7928460   0.0000000   0.0000000   0.0000000   0.0000000   0.0000000   2.7928460   0.0000000
 AtZNuc=   1.0000000   1.0000000   1.0000000   6.0000000   6.0000000   6.0000000   6.0000000   6.0000000   1.0000000   6.0000000

  Atom       151         152         153         154         155         156         157         158         159         160
 IAtWgt=           1          12           1           1           1          19          12           1           1           1
 AtmWgt=   1.0078250  12.0000000   1.0078250   1.0078250   1.0078250  18.9984032  12.0000000   1.0078250   1.0078250   1.0078250
 NucSpn=           1           0           1           1           1           1           0           1           1           1
 AtZEff=  -0.0000000  -0.0000000  -0.0000000  -0.0000000  -0.0000000  -0.0000000  -0.0000000  -0.0000000  -0.0000000  -0.0000000
 NQMom=    0.0000000   0.0000000   0.0000000   0.0000000   0.0000000   0.0000000   0.0000000   0.0000000   0.0000000   0.0000000
 NMagM=    2.7928460   0.0000000   2.7928460   2.7928460   2.7928460   2.6288670   0.0000000   2.7928460   2.7928460   2.7928460
 AtZNuc=   1.0000000   6.0000000   1.0000000   1.0000000   1.0000000   9.0000000   6.0000000   1.0000000   1.0000000   1.0000000

  Atom       161         162         163         164         165         166         167         168         169         170
 IAtWgt=          12          12          12           1           1          12           1           1           1           1
 AtmWgt=  12.0000000  12.0000000  12.0000000   1.0078250   1.0078250  12.0000000   1.0078250   1.0078250   1.0078250   1.0078250
 NucSpn=           0           0           0           1           1           0           1           1           1           1
 AtZEff=  -0.0000000  -0.0000000  -0.0000000  -0.0000000  -0.0000000  -0.0000000  -0.0000000  -0.0000000  -0.0000000  -0.0000000
 NQMom=    0.0000000   0.0000000   0.0000000   0.0000000   0.0000000   0.0000000   0.0000000   0.0000000   0.0000000   0.0000000
 NMagM=    0.0000000   0.0000000   0.0000000   2.7928460   2.7928460   0.0000000   2.7928460   2.7928460   2.7928460   2.7928460
 AtZNuc=   6.0000000   6.0000000   6.0000000   1.0000000   1.0000000   6.0000000   1.0000000   1.0000000   1.0000000   1.0000000

  Atom       171         172         173         174         175         176
 IAtWgt=           1           1          14          16           1           1
 AtmWgt=   1.0078250   1.0078250  14.0030740  15.9949146   1.0078250   1.0078250
 NucSpn=           1           1           2           0           1           1
 AtZEff=  -0.0000000  -0.0000000  -0.0000000  -0.0000000  -0.0000000  -0.0000000
 NQMom=    0.0000000   0.0000000   2.0440000   0.0000000   0.0000000   0.0000000
 NMagM=    2.7928460   2.7928460   0.4037610   0.0000000   2.7928460   2.7928460
 AtZNuc=   1.0000000   1.0000000   7.0000000   8.0000000   1.0000000   1.0000000
 Leave Link  101 at Sun Feb 23 10:14:35 2025, MaxMem=  6442450944 cpu:               2.3 elap:               0.1
 (Enter /ihome/crc/install/gaussian/c01/avx2/tar/g16/l202.exe)
 Symmetry turned off by external request.
 Stoichiometry    C86H65F8IN6O8S2
 Framework group  C1[X(C86H65F8IN6O8S2)]
 Deg. of freedom   522
 Full point group                 C1      NOp   1
                          Input orientation:                          
 ---------------------------------------------------------------------
 Center     Atomic      Atomic             Coordinates (Angstroms)
 Number     Number       Type             X           Y           Z
 ---------------------------------------------------------------------
      1          6           0        0.338800   -3.911262   -0.453036
      2          6           0       -0.689255   -3.138887    0.263547
      3          6           0       -0.321572   -2.751820    1.632700
      4          6           0        0.904542   -3.083187    2.121084
      5          6           0        1.858108   -3.725252    1.267602
      6          7           0        1.490565   -4.229782    0.043808
      7          1           0        1.165741   -2.779351    3.131224
      8          6           0        0.028958   -4.429339   -1.822984
      9          6           0        0.013310   -3.604224   -2.961195
     10          6           0       -0.419080   -4.143633   -4.181123
     11          6           0       -0.721102   -6.319472   -3.173371
     12          6           0       -0.792161   -5.481040   -4.284180
     13          1           0       -0.428835   -3.502956   -5.064399
     14          1           0       -1.123790   -5.881961   -5.242990
     15          1           0       -0.990495   -7.374918   -3.217504
     16          6           0       -0.304094   -5.775842   -1.969674
     17          6           0        0.530416   -2.209148   -2.915708
     18          6           0        1.829272   -1.963534   -2.449800
     19          6           0       -0.228152   -1.142067   -3.416254
     20          6           0        2.360689   -0.675450   -2.487173
     21          1           0        2.430083   -2.792921   -2.070405
     22          6           0        0.303452    0.144164   -3.445806
     23          1           0       -1.246800   -1.324464   -3.765346
     24          6           0        1.599134    0.379643   -2.984217
     25          1           0        3.368401   -0.493914   -2.111593
     26          1           0       -0.304901    0.973632   -3.807550
     27          1           0        2.007440    1.392058   -2.995575
     28          9           0       -0.249648   -6.567788   -0.890395
     29          6           0       -1.258257   -1.948050    2.466874
     30          1           0       -1.014149   -0.890690    2.298861
     31          1           0       -2.306992   -2.117388    2.201044
     32          1           0       -1.098819   -2.133191    3.538192
     33          6           0        4.095123   -4.632061    0.799852
     34          6           0        3.767755   -3.242158    2.757087
     35          6           0        4.749701   -5.663109    1.711674
     36          1           0        4.859524   -3.939165    0.415040
     37          1           0        3.580494   -5.110961   -0.036598
     38          6           0        4.438348   -4.325716    3.590594
     39          1           0        4.526555   -2.537724    2.382193
     40          1           0        3.047459   -2.672614    3.347859
     41          1           0        5.528122   -6.203413    1.157113
     42          1           0        3.985046   -6.392333    2.042345
     43          1           0        4.986892   -3.865732    4.422530
     44          1           0        3.664367   -4.998624    4.008260
     45          7           0        3.137376   -3.853942    1.588665
     46          8           0        5.361251   -5.055194    2.821476
     47          1           0       -1.126720   -2.313987   -0.322298
     48          6           0        0.102289    4.030267    5.333176
     49          6           0        0.335428    3.603855    4.047349
     50          6           0       -0.631277    2.823394    3.352398
     51          6           0       -1.833186    2.475069    4.031707
     52          6           0       -2.052883    2.940458    5.358565
     53          6           0       -1.107762    3.705091    5.995219
     54          1           0        0.859123    4.621180    5.851426
     55          1           0        1.277286    3.853746    3.558580
     56          6           0       -0.425566    2.352907    2.011531
     57          6           0       -2.783534    1.651082    3.385059
     58          1           0       -2.984625    2.668503    5.858674
     59          1           0       -1.279030    4.056441    7.013968
     60          6           0       -2.560217    1.149878    2.116491
     61          6           0       -1.352796    1.506881    1.427996
     62          1           0       -3.703357    1.385007    3.908930
     63          6           0        0.812861    2.808231    1.288085
     64          6           0        1.839416    1.945131    0.945349
     65          6           0        0.900173    4.196698    0.931202
     66          6           0        3.016044    2.425429    0.285623
     67          6           0        2.081882    4.677334    0.297490
     68          6           0       -0.161900    5.116882    1.161300
     69          6           0        3.126197    3.773420   -0.002254
     70          6           0        2.188443    6.054112   -0.047444
     71          6           0       -0.036678    6.439058    0.807046
     72          1           0       -1.091136    4.766584    1.610480
     73          1           0        4.029845    4.142246   -0.490877
     74          6           0        1.153571    6.918640    0.205734
     75          1           0        3.106575    6.401510   -0.525262
     76          1           0       -0.865426    7.125972    0.985641
     77          1           0        1.238019    7.972401   -0.064459
     78         16           0       -0.879103    0.763575   -0.140662
     79          8           0       -0.561970    1.868297   -0.995760
     80          8           0       -1.922835   -0.112628   -0.584274
     81         16           0        1.535453    0.197551    1.216903
     82          8           0        1.140239    0.094926    2.595719
     83          8           0        2.684853   -0.577650    0.852543
     84          7           0        0.367336   -0.137086    0.216005
     85          6           0       -3.546253    0.254636    1.580675
     86          6           0       -4.379481   -0.543924    1.205846
     87          6           0        4.104240    1.579813   -0.106100
     88          6           0        5.053033    0.923081   -0.480251
     89          6           0        6.071221    0.010874   -0.903557
     90          6           0        5.828492   -1.367453   -0.781608
     91          6           0        7.295908    0.441281   -1.449690
     92          6           0        6.786520   -2.287967   -1.197498
     93          1           0        4.873906   -1.687229   -0.356589
     94          6           0        8.249957   -0.484639   -1.860699
     95          6           0        7.996196   -1.850484   -1.736095
     96          1           0        6.587816   -3.356919   -1.102614
     97          1           0        9.193302   -0.136330   -2.281458
     98          1           0        8.746051   -2.571955   -2.062492
     99          6           0       -5.279689   -1.495718    0.625063
    100          6           0       -5.467065   -1.481170   -0.766178
    101          6           0       -5.961349   -2.463820    1.389237
    102          6           0       -6.329687   -2.388652   -1.373052
    103          1           0       -4.915312   -0.750568   -1.358250
    104          6           0       -6.837750   -3.355551    0.777254
    105          6           0       -7.026350   -3.318914   -0.603556
    106          1           0       -6.457850   -2.368925   -2.456147
    107          1           0       -7.369806   -4.088066    1.386275
    108          1           0       -7.704885   -4.027584   -1.079909
    109          6           0        7.564368    1.917697   -1.582324
    110          9           0        7.535234    2.537215   -0.397884
    111          9           0        8.761017    2.160677   -2.121318
    112          9           0        6.656705    2.523610   -2.354794
    113          6           0       -5.719398   -2.551275    2.872390
    114          9           0       -6.125597   -1.453973    3.521845
    115          9           0       -6.359628   -3.588748    3.423770
    116          9           0       -4.421552   -2.701367    3.159046
    117         53           0       -2.531061   -4.453566    0.407950
    118          7           0       -4.654577   -5.855697    0.704465
    119          6           0       -5.016659   -6.096277    1.941481
    120          6           0       -6.371639   -6.753522    2.074666
    121          6           0       -6.811904   -6.887789    0.620499
    122          6           0       -5.644429   -6.295463   -0.175708
    123          8           0       -5.575539   -6.221617   -1.374636
    124          8           0       -4.269493   -5.767741    2.913888
    125          1           0       -6.269615   -7.715257    2.593755
    126          1           0       -7.017037   -6.110333    2.691556
    127          1           0       -7.726457   -6.327226    0.380776
    128          1           0       -6.968518   -7.927955    0.303279
    129          6           0       -4.854847   -7.616324    5.741449
    130          6           0       -5.244568   -7.790892    7.056918
    131          6           0       -5.117073   -6.706692    7.952106
    132          6           0       -4.547136   -5.526672    7.503625
    133          6           0       -4.113047   -5.427689    6.158164
    134          7           0       -4.355141   -6.442787    5.309445
    135          1           0       -4.378007   -4.705789    8.199159
    136          6           0       -4.971303   -8.676733    4.700972
    137          6           0       -3.962082   -8.915993    3.734410
    138          6           0       -4.226029   -9.802811    2.681180
    139          6           0       -6.424992  -10.284198    3.550858
    140          6           0       -5.441876  -10.477174    2.585249
    141          1           0       -3.444421   -9.990355    1.943676
    142          1           0       -5.618344  -11.169291    1.760763
    143          1           0       -7.388488  -10.793354    3.517583
    144          6           0       -6.168570   -9.391641    4.581592
    145          6           0       -2.601557   -8.306423    3.809424
    146          6           0       -1.874313   -8.313700    5.009166
    147          6           0       -2.004847   -7.764521    2.662356
    148          6           0       -0.583769   -7.790632    5.058877
    149          1           0       -2.321746   -8.744475    5.908098
    150          6           0       -0.714201   -7.236390    2.712840
    151          1           0       -2.562713   -7.727970    1.723029
    152          6           0       -0.000275   -7.248712    3.910731
    153          1           0       -0.028269   -7.811334    5.998304
    154          1           0       -0.276021   -6.807930    1.809100
    155          1           0        1.010399   -6.837370    3.951014
    156          9           0       -7.142170   -9.174836    5.472144
    157          6           0       -5.560761   -6.864856    9.377194
    158          1           0       -6.644365   -7.051914    9.415933
    159          1           0       -5.065959   -7.731192    9.839887
    160          1           0       -5.338467   -5.970640    9.972388
    161          6           0       -2.366569   -4.544005    4.665369
    162          6           0       -3.394716   -3.054004    6.289724
    163          6           0       -1.026951   -4.197687    5.300907
    164          1           0       -2.562425   -3.908214    3.790521
    165          1           0       -2.345004   -5.582915    4.320515
    166          6           0       -2.011667   -2.770393    6.858884
    167          1           0       -3.620987   -2.301367    5.515750
    168          1           0       -4.166345   -2.976702    7.064552
    169          1           0       -0.236267   -4.227278    4.537290
    170          1           0       -0.785750   -4.945747    6.082447
    171          1           0       -1.957643   -1.740877    7.237655
    172          1           0       -1.800482   -3.466362    7.694545
    173          7           0       -3.432589   -4.362051    5.653174
    174          8           0       -1.025762   -2.904367    5.861267
    175          1           0       -5.646184   -8.745973    7.393152
    176          1           0       -4.385643   -6.129456    3.962097
 ---------------------------------------------------------------------
 Rotational constants (GHZ):           0.0219711           0.0099997           0.0091317
 Leave Link  202 at Sun Feb 23 10:14:35 2025, MaxMem=  6442450944 cpu:               0.5 elap:               0.0
 (Enter /ihome/crc/install/gaussian/c01/avx2/tar/g16/l301.exe)
 Standard basis: def2TZVPP (5D, 7F)
 Ernie: Thresh=  0.10000D-02 Tol=  0.10000D-05 Strict=F.
  4392 basis functions,  6860 primitive gaussians,  5018 cartesian basis functions
   408 alpha electrons      408 beta electrons
       nuclear repulsion energy     27204.7293431551 Hartrees.
 IExCor=  402 DFT=T Ex+Corr=B3LYP ExCW=0 ScaHFX=  0.200000
 ScaDFX=  0.800000  0.720000  1.000000  0.810000 ScalE2=  1.000000  1.000000
 IRadAn=      5 IRanWt=     -1 IRanGd=            0 ICorTp=0 IEmpDi=141
 NAtoms=  176 NActive=  176 NUniq=  176 SFac= 1.00D+00 NAtFMM=   60 NAOKFM=T Big=T
 Integral buffers will be    131072 words long.
 Raffenetti 2 integral format.
 Two-electron integral symmetry is turned off.
 R6Disp:  Grimme-D3(BJ) Dispersion energy=       -0.5739872021 Hartrees.
 Nuclear repulsion after empirical dispersion term =    27204.1553559530 Hartrees.
 ------------------------------------------------------------------------------
 Polarizable Continuum Model (PCM)
 =================================
 Model                : PCM.
 Atomic radii         : SMD-Coulomb.
 Polarization charges : Total charges.
 Charge compensation  : None.
 Solution method      : On-the-fly selection.
 Cavity type          : VdW (van der Waals Surface) (Alpha=1.000).
 Cavity algorithm     : GePol (No added spheres)
                        Default sphere list used, NSphG=  176.
                        Lebedev-Laikov grids with approx.  5.0 points / Ang**2.
                        Smoothing algorithm: York/Karplus (Gamma=1.0000).
                        Polarization charges: spherical gaussians, with
                                              point-specific exponents (IZeta= 3).
                        Self-potential: point-specific (ISelfS= 7).
                        Self-field    : sphere-specific E.n sum rule (ISelfD= 2).
 Solvent              : PropylEthanoate, Eps=   5.520500 Eps(inf)=   1.916010
 ------------------------------------------------------------------------------
 GePol: Number of generator spheres                  =     176
 GePol: Total number of spheres                      =     176
 GePol: Number of exposed spheres                    =     175 ( 99.43%)
 GePol: Number of points                             =   12085
 GePol: Average weight of points                     =       0.11
 GePol: Minimum weight of points                     =   0.42D-11
 GePol: Maximum weight of points                     =    0.21501
 GePol: Number of points with low weight             =     854
 GePol: Fraction of low-weight points (<1% of avg)   =       7.07%
 GePol: Cavity surface area                          =   1316.033 Ang**2
 GePol: Cavity volume                                =   1550.495 Ang**3
 ------------------------------------------------------------------------------
 Atomic radii for non-electrostatic terms: SMD-CDS.
 ------------------------------------------------------------------------------
 PCM non-electrostatic energy =        -0.0332961043 Hartrees.
 Nuclear repulsion after PCM non-electrostatic terms =    27204.1220598487 Hartrees.
 Leave Link  301 at Sun Feb 23 10:14:35 2025, MaxMem=  6442450944 cpu:               4.5 elap:               0.2
 (Enter /ihome/crc/install/gaussian/c01/avx2/tar/g16/l302.exe)
 NPDir=0 NMtPBC=     1 NCelOv=     1 NCel=       1 NClECP=     1 NCelD=      1
         NCelK=      1 NCelE2=     1 NClLst=     1 CellRange=     0.0.
 One-electron integrals computed using PRISM.
   1 Symmetry operations used in ECPInt.
 ECPInt:  NShTT= 1316253 NPrTT= 3826671 LenC2=  729216 LenP2D= 1323147.
 LDataN:  DoStor=T MaxTD1= 7 Len=  274
 Number of processors reduced to  10 by ecpmxn.
 NBasis=  4392 RedAO= T EigKep=  1.72D-06  NBF=  4392
 NBsUse=  4392 1.00D-06 EigRej= -1.00D+00 NBFU=  4392
 Precomputing XC quadrature grid using
 IXCGrd= 4 IRadAn=           5 IRanWt=          -1 IRanGd=           0 AccXCQ= 0.00D+00.
 Defaulting to unpruned grid for atomic number  53.
 Generated NRdTot=       0 NPtTot=           0 NUsed=           0 NTot=          32
 NSgBfM=  3538  3538  3538  3538  3538 MxSgAt=   176 MxSgA2=   176.
 Leave Link  302 at Sun Feb 23 10:15:29 2025, MaxMem=  6442450944 cpu:            1659.7 elap:              54.2
 (Enter /ihome/crc/install/gaussian/c01/avx2/tar/g16/l303.exe)
 DipDrv:  MaxL=1.
 Leave Link  303 at Sun Feb 23 10:15:32 2025, MaxMem=  6442450944 cpu:              55.4 elap:               2.2
 (Enter /ihome/crc/install/gaussian/c01/avx2/tar/g16/l401.exe)
 ExpMin= 7.49D-02 ExpMax= 6.07D+04 ExpMxC= 2.07D+03 IAcc=3 IRadAn=         5 AccDes= 0.00D+00
 Harris functional with IExCor=  402 and IRadAn=       5 diagonalized for initial guess.
 HarFok:  IExCor=  402 AccDes= 0.00D+00 IRadAn=         5 IDoV= 1 UseB2=F ITyADJ=14
 ICtDFT=  3500011 ScaDFX=  1.000000  1.000000  1.000000  1.000000
 Defaulting to unpruned grid for atomic number  53.
 FoFCou: FMM=F IPFlag=           0 FMFlag=      100000 FMFlg1=        2001
         NFxFlg=           0 DoJE=T BraDBF=F KetDBF=T FulRan=T
         wScrn=  0.000000 ICntrl=       500 IOpCl=  0 I1Cent=   200000004 NGrid=           0
         NMat0=    1 NMatS0=      1 NMatT0=    0 NMatD0=    1 NMtDS0=    0 NMtDT0=    0
 Symmetry not used in FoFCou.
 Harris En= -6142.00708290400    
 JPrj=0 DoOrth=F DoCkMO=F.
 Leave Link  401 at Sun Feb 23 10:16:25 2025, MaxMem=  6442450944 cpu:            1683.8 elap:              52.8
 (Enter /ihome/crc/install/gaussian/c01/avx2/tar/g16/l502.exe)
 Two-electron integral symmetry not used.
 Closed shell SCF:
 Using DIIS extrapolation, IDIIS=  1040.
 NGot=  6442450944 LenX=  6391894960 LenY=  6366709618
 Requested convergence on RMS density matrix=1.00D-08 within 128 cycles.
 Requested convergence on MAX density matrix=1.00D-06.
 Requested convergence on             energy=1.00D-06.
 No special actions if energy rises.
 Fock matrices will be formed incrementally for  20 cycles.

 Cycle   1  Pass 1  IDiag  1:
 FoFJK:  IHMeth= 1 ICntrl=       0 DoSepK=F KAlg= 0 I1Cent=           0 FoldK=F
 IRaf= 500000000 NMat=       1 IRICut=       1 DoRegI=T DoRafI=F ISym2E= 0 IDoP0=0 IntGTp=1.
 FoFCou: FMM=T IPFlag=           0 FMFlag=      100000 FMFlg1=        2001
         NFxFlg=           0 DoJE=F BraDBF=F KetDBF=F FulRan=T
         wScrn=  0.000000 ICntrl=         0 IOpCl=  0 I1Cent=           0 NGrid=           0
         NMat0=    1 NMatS0=      1 NMatT0=    0 NMatD0=    1 NMtDS0=    0 NMtDT0=    0
 Symmetry not used in FoFCou.
 FMM levels:  10  Number of levels for PrismC:   9
 Defaulting to unpruned grid for atomic number  53.
 Defaulting to unpruned grid for atomic number  53.
 Defaulting to unpruned grid for atomic number  53.
 Defaulting to unpruned grid for atomic number  53.
 Defaulting to unpruned grid for atomic number  53.
 Defaulting to unpruned grid for atomic number  53.
 Defaulting to unpruned grid for atomic number  53.
 Defaulting to unpruned grid for atomic number  53.
 Defaulting to unpruned grid for atomic number  53.
 Defaulting to unpruned grid for atomic number  53.
 Defaulting to unpruned grid for atomic number  53.
 Defaulting to unpruned grid for atomic number  53.
 Defaulting to unpruned grid for atomic number  53.
 Defaulting to unpruned grid for atomic number  53.
 Defaulting to unpruned grid for atomic number  53.
 Defaulting to unpruned grid for atomic number  53.
 Defaulting to unpruned grid for atomic number  53.
 Defaulting to unpruned grid for atomic number  53.
 Defaulting to unpruned grid for atomic number  53.
 Defaulting to unpruned grid for atomic number  53.
 Defaulting to unpruned grid for atomic number  53.
 Defaulting to unpruned grid for atomic number  53.
 Defaulting to unpruned grid for atomic number  53.
 Defaulting to unpruned grid for atomic number  53.
 Defaulting to unpruned grid for atomic number  53.
 Defaulting to unpruned grid for atomic number  53.
 Defaulting to unpruned grid for atomic number  53.
 Defaulting to unpruned grid for atomic number  53.
 Defaulting to unpruned grid for atomic number  53.
 Defaulting to unpruned grid for atomic number  53.
 Defaulting to unpruned grid for atomic number  53.
 Defaulting to unpruned grid for atomic number  53.
 Inv3:  Mode=1 IEnd=   438141675.
 Iteration    1 A*A^-1 deviation from unit magnitude is 4.22D-15 for   8829.
 Iteration    1 A*A^-1 deviation from orthogonality  is 3.75D-15 for   7916    617.
 Iteration    1 A^-1*A deviation from unit magnitude is 4.44D-15 for   8829.
 Iteration    1 A^-1*A deviation from orthogonality  is 5.26D-14 for   9088   9061.
 E= -6139.33826653623    
 DIIS: error= 1.18D-02 at cycle   1 NSaved=   1.
 NSaved= 1 IEnMin= 1 EnMin= -6139.33826653623     IErMin= 1 ErrMin= 1.18D-02
 ErrMax= 1.18D-02  0.00D+00 EMaxC= 1.00D-01 BMatC= 3.28D+00 BMatP= 3.28D+00
 IDIUse=3 WtCom= 8.82D-01 WtEn= 1.18D-01
 Coeff-Com:  0.100D+01
 Coeff-En:   0.100D+01
 Coeff:      0.100D+01
 Gap=     0.307 Goal=   None    Shift=    0.000
 GapD=    0.307 DampG=1.000 DampE=0.500 DampFc=0.5000 IDamp=-1.
 Damping current iteration by 5.00D-01
 RMSDP=2.45D-03 MaxDP=1.13D+00              OVMax= 2.31D-01

 Cycle   2  Pass 1  IDiag  1:
 RMSU=  1.21D-03    CP:  1.06D+00
 E= -6140.22897996088     Delta-E=       -0.890713424647 Rises=F Damp=T
 DIIS: error= 4.73D-03 at cycle   2 NSaved=   2.
 NSaved= 2 IEnMin= 2 EnMin= -6140.22897996088     IErMin= 2 ErrMin= 4.73D-03
 ErrMax= 4.73D-03  0.00D+00 EMaxC= 1.00D-01 BMatC= 4.03D-01 BMatP= 3.28D+00
 IDIUse=3 WtCom= 9.53D-01 WtEn= 4.73D-02
 Coeff-Com:  0.155D+00 0.845D+00
 Coeff-En:   0.271D+00 0.729D+00
 Coeff:      0.160D+00 0.840D+00
 Gap=     0.195 Goal=   None    Shift=    0.000
 RMSDP=9.19D-04 MaxDP=4.81D-01 DE=-8.91D-01 OVMax= 2.25D-01

 Cycle   3  Pass 1  IDiag  1:
 RMSU=  5.91D-04    CP:  1.00D+00  4.37D-01
 E= -6141.59663015183     Delta-E=       -1.367650190947 Rises=F Damp=F
 DIIS: error= 5.37D-03 at cycle   3 NSaved=   3.
 NSaved= 3 IEnMin= 3 EnMin= -6141.59663015183     IErMin= 2 ErrMin= 4.73D-03
 ErrMax= 5.37D-03  0.00D+00 EMaxC= 1.00D-01 BMatC= 4.70D-01 BMatP= 4.03D-01
 IDIUse=3 WtCom= 1.20D-01 WtEn= 8.80D-01
 Coeff-Com:  0.613D-02 0.521D+00 0.473D+00
 Coeff-En:   0.000D+00 0.000D+00 0.100D+01
 Coeff:      0.736D-03 0.625D-01 0.937D+00
 Gap=     0.199 Goal=   None    Shift=    0.000
 RMSDP=1.17D-03 MaxDP=1.10D+00 DE=-1.37D+00 OVMax= 2.17D-01

 Cycle   4  Pass 1  IDiag  1:
 RMSU=  8.07D-04    CP:  1.02D+00  8.17D-01 -1.97D-01
 E= -6140.10251553798     Delta-E=        1.494114613852 Rises=F Damp=F
 DIIS: error= 1.51D-02 at cycle   4 NSaved=   4.
 NSaved= 4 IEnMin= 3 EnMin= -6141.59663015183     IErMin= 2 ErrMin= 4.73D-03
 ErrMax= 1.51D-02  0.00D+00 EMaxC= 1.00D-01 BMatC= 2.36D+00 BMatP= 4.03D-01
 IDIUse=2 WtCom= 0.00D+00 WtEn= 1.00D+00
 Coeff-En:   0.000D+00 0.000D+00 0.768D+00 0.232D+00
 Coeff:      0.000D+00 0.000D+00 0.768D+00 0.232D+00
 Gap=     0.163 Goal=   None    Shift=    0.000
 RMSDP=7.52D-04 MaxDP=8.84D-01 DE= 1.49D+00 OVMax= 1.43D-01

 Cycle   5  Pass 1  IDiag  1:
 RMSU=  2.07D-04    CP:  1.00D+00  5.41D-01  4.22D-01  3.53D-01
 E= -6141.88646632342     Delta-E=       -1.783950785441 Rises=F Damp=F
 DIIS: error= 2.88D-03 at cycle   5 NSaved=   5.
 NSaved= 5 IEnMin= 5 EnMin= -6141.88646632342     IErMin= 5 ErrMin= 2.88D-03
 ErrMax= 2.88D-03  0.00D+00 EMaxC= 1.00D-01 BMatC= 1.37D-01 BMatP= 4.03D-01
 IDIUse=3 WtCom= 9.71D-01 WtEn= 2.88D-02
 Coeff-Com:  0.741D-02-0.247D-02 0.332D+00-0.101D-01 0.673D+00
 Coeff-En:   0.000D+00 0.000D+00 0.268D+00 0.000D+00 0.732D+00
 Coeff:      0.720D-02-0.240D-02 0.330D+00-0.983D-02 0.675D+00
 Gap=     0.120 Goal=   None    Shift=    0.000
 RMSDP=1.73D-04 MaxDP=1.07D-01 DE=-1.78D+00 OVMax= 3.64D-02

 Cycle   6  Pass 1  IDiag  1:
 RMSU=  5.79D-05    CP:  1.00D+00  4.89D-01  6.06D-01  2.36D-01  7.95D-01
 E= -6141.99402021580     Delta-E=       -0.107553892380 Rises=F Damp=F
 DIIS: error= 6.38D-04 at cycle   6 NSaved=   6.
 NSaved= 6 IEnMin= 6 EnMin= -6141.99402021580     IErMin= 6 ErrMin= 6.38D-04
 ErrMax= 6.38D-04  0.00D+00 EMaxC= 1.00D-01 BMatC= 5.88D-03 BMatP= 1.37D-01
 IDIUse=3 WtCom= 9.94D-01 WtEn= 6.38D-03
 Coeff-Com:  0.900D-03-0.371D-02 0.155D+00-0.446D-01 0.471D+00 0.422D+00
 Coeff-En:   0.000D+00 0.000D+00 0.000D+00 0.000D+00 0.000D+00 0.100D+01
 Coeff:      0.895D-03-0.369D-02 0.154D+00-0.443D-01 0.468D+00 0.425D+00
 Gap=     0.120 Goal=   None    Shift=    0.000
 RMSDP=3.63D-05 MaxDP=1.80D-02 DE=-1.08D-01 OVMax= 1.20D-02

 Cycle   7  Pass 1  IDiag  1:
 RMSU=  1.91D-05    CP:  1.00D+00  4.93D-01  6.17D-01  2.18D-01  8.28D-01
                    CP:  5.64D-01
 E= -6141.99942635701     Delta-E=       -0.005406141216 Rises=F Damp=F
 DIIS: error= 1.89D-04 at cycle   7 NSaved=   7.
 NSaved= 7 IEnMin= 7 EnMin= -6141.99942635701     IErMin= 7 ErrMin= 1.89D-04
 ErrMax= 1.89D-04  0.00D+00 EMaxC= 1.00D-01 BMatC= 3.03D-04 BMatP= 5.88D-03
 IDIUse=3 WtCom= 9.98D-01 WtEn= 1.89D-03
 Coeff-Com: -0.151D-04 0.198D-03 0.728D-01-0.285D-01 0.240D+00 0.255D+00
 Coeff-Com:  0.460D+00
 Coeff-En:   0.000D+00 0.000D+00 0.000D+00 0.000D+00 0.000D+00 0.000D+00
 Coeff-En:   0.100D+01
 Coeff:     -0.150D-04 0.198D-03 0.727D-01-0.284D-01 0.239D+00 0.255D+00
 Coeff:      0.461D+00
 Gap=     0.120 Goal=   None    Shift=    0.000
 RMSDP=7.76D-06 MaxDP=2.67D-03 DE=-5.41D-03 OVMax= 2.00D-03

 Cycle   8  Pass 1  IDiag  1:
 RMSU=  6.34D-06    CP:  1.00D+00  4.92D-01  6.16D-01  2.19D-01  8.32D-01
                    CP:  5.63D-01  7.79D-01
 E= -6141.99966168539     Delta-E=       -0.000235328374 Rises=F Damp=F
 DIIS: error= 4.65D-05 at cycle   8 NSaved=   8.
 NSaved= 8 IEnMin= 8 EnMin= -6141.99966168539     IErMin= 8 ErrMin= 4.65D-05
 ErrMax= 4.65D-05  0.00D+00 EMaxC= 1.00D-01 BMatC= 2.74D-05 BMatP= 3.03D-04
 IDIUse=1 WtCom= 1.00D+00 WtEn= 0.00D+00
 Coeff-Com:  0.329D-04 0.164D-03 0.217D-01-0.101D-01 0.721D-01 0.837D-01
 Coeff-Com:  0.253D+00 0.579D+00
 Coeff:      0.329D-04 0.164D-03 0.217D-01-0.101D-01 0.721D-01 0.837D-01
 Coeff:      0.253D+00 0.579D+00
 Gap=     0.120 Goal=   None    Shift=    0.000
 RMSDP=2.38D-06 MaxDP=8.24D-04 DE=-2.35D-04 OVMax= 9.12D-04

 Cycle   9  Pass 1  IDiag  1:
 RMSU=  1.94D-06    CP:  1.00D+00  4.92D-01  6.17D-01  2.18D-01  8.31D-01
                    CP:  5.57D-01  7.84D-01  8.67D-01
 E= -6141.99968285047     Delta-E=       -0.000021165080 Rises=F Damp=F
 DIIS: error= 2.21D-05 at cycle   9 NSaved=   9.
 NSaved= 9 IEnMin= 9 EnMin= -6141.99968285047     IErMin= 9 ErrMin= 2.21D-05
 ErrMax= 2.21D-05  0.00D+00 EMaxC= 1.00D-01 BMatC= 5.22D-06 BMatP= 2.74D-05
 IDIUse=1 WtCom= 1.00D+00 WtEn= 0.00D+00
 Coeff-Com:  0.690D-04-0.167D-03 0.346D-02-0.190D-02 0.993D-02 0.144D-01
 Coeff-Com:  0.880D-01 0.366D+00 0.521D+00
 Coeff:      0.690D-04-0.167D-03 0.346D-02-0.190D-02 0.993D-02 0.144D-01
 Coeff:      0.880D-01 0.366D+00 0.521D+00
 Gap=     0.120 Goal=   None    Shift=    0.000
 RMSDP=1.09D-06 MaxDP=5.10D-04 DE=-2.12D-05 OVMax= 3.85D-04

 Cycle  10  Pass 1  IDiag  1:
 RMSU=  8.50D-07    CP:  1.00D+00  4.92D-01  6.17D-01  2.18D-01  8.31D-01
                    CP:  5.58D-01  7.90D-01  8.52D-01  7.49D-01
 E= -6141.99968714391     Delta-E=       -0.000004293444 Rises=F Damp=F
 DIIS: error= 6.78D-06 at cycle  10 NSaved=  10.
 NSaved=10 IEnMin=10 EnMin= -6141.99968714391     IErMin=10 ErrMin= 6.78D-06
 ErrMax= 6.78D-06  0.00D+00 EMaxC= 1.00D-01 BMatC= 5.92D-07 BMatP= 5.22D-06
 IDIUse=1 WtCom= 1.00D+00 WtEn= 0.00D+00
 Coeff-Com:  0.370D-04-0.159D-03 0.472D-04-0.176D-03-0.844D-03 0.773D-03
 Coeff-Com:  0.280D-01 0.164D+00 0.323D+00 0.486D+00
 Coeff:      0.370D-04-0.159D-03 0.472D-04-0.176D-03-0.844D-03 0.773D-03
 Coeff:      0.280D-01 0.164D+00 0.323D+00 0.486D+00
 Gap=     0.120 Goal=   None    Shift=    0.000
 RMSDP=4.18D-07 MaxDP=1.75D-04 DE=-4.29D-06 OVMax= 1.25D-04

 Cycle  11  Pass 1  IDiag  1:
 RMSU=  2.55D-07    CP:  1.00D+00  4.92D-01  6.17D-01  2.18D-01  8.31D-01
                    CP:  5.60D-01  7.92D-01  8.73D-01  7.94D-01  7.25D-01
 E= -6141.99968762113     Delta-E=       -0.000000477223 Rises=F Damp=F
 DIIS: error= 2.01D-06 at cycle  11 NSaved=  11.
 NSaved=11 IEnMin=11 EnMin= -6141.99968762113     IErMin=11 ErrMin= 2.01D-06
 ErrMax= 2.01D-06  0.00D+00 EMaxC= 1.00D-01 BMatC= 7.82D-08 BMatP= 5.92D-07
 IDIUse=1 WtCom= 1.00D+00 WtEn= 0.00D+00
 Coeff-Com:  0.112D-04-0.725D-04-0.352D-03 0.808D-04-0.151D-02-0.892D-03
 Coeff-Com:  0.804D-02 0.625D-01 0.145D+00 0.309D+00 0.478D+00
 Coeff:      0.112D-04-0.725D-04-0.352D-03 0.808D-04-0.151D-02-0.892D-03
 Coeff:      0.804D-02 0.625D-01 0.145D+00 0.309D+00 0.478D+00
 Gap=     0.120 Goal=   None    Shift=    0.000
 RMSDP=1.59D-07 MaxDP=5.60D-05 DE=-4.77D-07 OVMax= 6.62D-05

 Cycle  12  Pass 1  IDiag  1:
 RMSU=  1.16D-07    CP:  1.00D+00  4.92D-01  6.17D-01  2.18D-01  8.31D-01
                    CP:  5.60D-01  7.95D-01  8.78D-01  7.86D-01  7.57D-01
                    CP:  7.52D-01
 E= -6141.99968769049     Delta-E=       -0.000000069354 Rises=F Damp=F
 DIIS: error= 6.64D-07 at cycle  12 NSaved=  12.
 NSaved=12 IEnMin=12 EnMin= -6141.99968769049     IErMin=12 ErrMin= 6.64D-07
 ErrMax= 6.64D-07  0.00D+00 EMaxC= 1.00D-01 BMatC= 7.53D-09 BMatP= 7.82D-08
 IDIUse=1 WtCom= 1.00D+00 WtEn= 0.00D+00
 Coeff-Com: -0.115D-05-0.102D-04-0.268D-03 0.822D-04-0.900D-03-0.674D-03
 Coeff-Com:  0.928D-03 0.153D-01 0.420D-01 0.111D+00 0.266D+00 0.566D+00
 Coeff:     -0.115D-05-0.102D-04-0.268D-03 0.822D-04-0.900D-03-0.674D-03
 Coeff:      0.928D-03 0.153D-01 0.420D-01 0.111D+00 0.266D+00 0.566D+00
 Gap=     0.120 Goal=   None    Shift=    0.000
 RMSDP=5.51D-08 MaxDP=2.59D-05 DE=-6.94D-08 OVMax= 2.05D-05

 Cycle  13  Pass 1  IDiag  1:
 RMSU=  3.48D-08    CP:  1.00D+00  4.92D-01  6.17D-01  2.18D-01  8.31D-01
                    CP:  5.60D-01  7.95D-01  8.78D-01  7.87D-01  7.59D-01
                    CP:  8.03D-01  7.96D-01
 E= -6141.99968769767     Delta-E=       -0.000000007181 Rises=F Damp=F
 DIIS: error= 4.41D-07 at cycle  13 NSaved=  13.
 NSaved=13 IEnMin=13 EnMin= -6141.99968769767     IErMin=13 ErrMin= 4.41D-07
 ErrMax= 4.41D-07  0.00D+00 EMaxC= 1.00D-01 BMatC= 1.33D-09 BMatP= 7.53D-09
 IDIUse=1 WtCom= 1.00D+00 WtEn= 0.00D+00
 Coeff-Com: -0.351D-05 0.643D-05-0.108D-03 0.353D-04-0.288D-03-0.226D-03
 Coeff-Com: -0.650D-03-0.545D-03 0.199D-02 0.156D-01 0.799D-01 0.336D+00
 Coeff-Com:  0.568D+00
 Coeff:     -0.351D-05 0.643D-05-0.108D-03 0.353D-04-0.288D-03-0.226D-03
 Coeff:     -0.650D-03-0.545D-03 0.199D-02 0.156D-01 0.799D-01 0.336D+00
 Coeff:      0.568D+00
 Gap=     0.120 Goal=   None    Shift=    0.000
 RMSDP=1.75D-08 MaxDP=3.50D-06 DE=-7.18D-09 OVMax= 9.62D-06

 Cycle  14  Pass 1  IDiag  1:
 RMSU=  1.48D-08    CP:  1.00D+00  4.92D-01  6.17D-01  2.18D-01  8.31D-01
                    CP:  5.60D-01  7.95D-01  8.78D-01  7.89D-01  7.66D-01
                    CP:  8.04D-01  8.25D-01  8.81D-01
 E= -6141.99968769819     Delta-E=       -0.000000000520 Rises=F Damp=F
 DIIS: error= 1.92D-07 at cycle  14 NSaved=  14.
 NSaved=14 IEnMin=14 EnMin= -6141.99968769819     IErMin=14 ErrMin= 1.92D-07
 ErrMax= 1.92D-07  0.00D+00 EMaxC= 1.00D-01 BMatC= 2.23D-10 BMatP= 1.33D-09
 IDIUse=1 WtCom= 1.00D+00 WtEn= 0.00D+00
 Coeff-Com: -0.231D-05 0.638D-05-0.287D-04 0.848D-05-0.415D-04-0.294D-04
 Coeff-Com: -0.511D-03-0.259D-02-0.527D-02-0.770D-02 0.872D-02 0.121D+00
 Coeff-Com:  0.360D+00 0.526D+00
 Coeff:     -0.231D-05 0.638D-05-0.287D-04 0.848D-05-0.415D-04-0.294D-04
 Coeff:     -0.511D-03-0.259D-02-0.527D-02-0.770D-02 0.872D-02 0.121D+00
 Coeff:      0.360D+00 0.526D+00
 Gap=     0.120 Goal=   None    Shift=    0.000
 RMSDP=9.27D-09 MaxDP=3.56D-06 DE=-5.20D-10 OVMax= 3.15D-06

 Cycle  15  Pass 1  IDiag  1:
 RMSU=  5.55D-09    CP:  1.00D+00  4.92D-01  6.17D-01  2.18D-01  8.31D-01
                    CP:  5.60D-01  7.95D-01  8.78D-01  7.89D-01  7.65D-01
                    CP:  8.13D-01  8.51D-01  9.05D-01  8.15D-01
 E= -6141.99968769856     Delta-E=       -0.000000000371 Rises=F Damp=F
 DIIS: error= 6.19D-08 at cycle  15 NSaved=  15.
 NSaved=15 IEnMin=15 EnMin= -6141.99968769856     IErMin=15 ErrMin= 6.19D-08
 ErrMax= 6.19D-08  0.00D+00 EMaxC= 1.00D-01 BMatC= 2.82D-11 BMatP= 2.23D-10
 IDIUse=1 WtCom= 1.00D+00 WtEn= 0.00D+00
 Coeff-Com: -0.830D-06 0.275D-05-0.318D-05 0.552D-06 0.101D-04 0.101D-04
 Coeff-Com: -0.195D-03-0.133D-02-0.324D-02-0.641D-02-0.580D-02 0.211D-01
 Coeff-Com:  0.137D+00 0.319D+00 0.541D+00
 Coeff:     -0.830D-06 0.275D-05-0.318D-05 0.552D-06 0.101D-04 0.101D-04
 Coeff:     -0.195D-03-0.133D-02-0.324D-02-0.641D-02-0.580D-02 0.211D-01
 Coeff:      0.137D+00 0.319D+00 0.541D+00
 Gap=     0.120 Goal=   None    Shift=    0.000
 RMSDP=2.68D-09 MaxDP=6.64D-07 DE=-3.71D-10 OVMax= 1.24D-06

 Error on total polarization charges =  0.09598
 SCF Done:  E(RB3LYP) =  -6141.99968770     A.U. after   15 cycles
            NFock= 15  Conv=0.27D-08     -V/T= 2.0356
 KE= 5.931145202606D+03 PE=-6.873095641260D+04 EE= 2.945368946245D+04
 SMD-CDS (non-electrostatic) energy       (kcal/mol) =     -20.89
 (included in total energy above)
 Leave Link  502 at Sun Feb 23 13:02:02 2025, MaxMem=  6442450944 cpu:          316417.7 elap:            9936.9
 (Enter /ihome/crc/install/gaussian/c01/avx2/tar/g16/l601.exe)
 Copying SCF densities to generalized density rwf, IOpCl= 0 IROHF=0.
 Hyperfine terms turned off by default for NAtoms > 100.

 **********************************************************************

            Population analysis using the SCF Density.

 **********************************************************************

 Alpha  occ. eigenvalues --  -89.02506 -89.02394 -24.71805 -24.71752 -24.71453
 Alpha  occ. eigenvalues --  -24.71344 -24.71325 -24.71135 -24.70822 -24.69764
 Alpha  occ. eigenvalues --  -19.14179 -19.13938 -19.13164 -19.10091 -19.08863
 Alpha  occ. eigenvalues --  -19.08753 -19.08545 -19.08450 -14.38292 -14.34420
 Alpha  occ. eigenvalues --  -14.33419 -14.32720 -14.31353 -14.27628 -10.42418
 Alpha  occ. eigenvalues --  -10.42410 -10.28730 -10.28072 -10.27401 -10.27001
 Alpha  occ. eigenvalues --  -10.26444 -10.26160 -10.25584 -10.23754 -10.22542
 Alpha  occ. eigenvalues --  -10.22496 -10.21732 -10.21713 -10.21476 -10.21364
 Alpha  occ. eigenvalues --  -10.21328 -10.21216 -10.21200 -10.21159 -10.21140
 Alpha  occ. eigenvalues --  -10.20930 -10.20843 -10.20754 -10.20638 -10.20458
 Alpha  occ. eigenvalues --  -10.20394 -10.20359 -10.20350 -10.20313 -10.20170
 Alpha  occ. eigenvalues --  -10.20162 -10.19486 -10.19404 -10.19380 -10.19342
 Alpha  occ. eigenvalues --  -10.19300 -10.19278 -10.19275 -10.19268 -10.19101
 Alpha  occ. eigenvalues --  -10.19099 -10.19002 -10.18956 -10.18891 -10.18826
 Alpha  occ. eigenvalues --  -10.18679 -10.18636 -10.18614 -10.18505 -10.18477
 Alpha  occ. eigenvalues --  -10.18416 -10.18376 -10.18272 -10.18218 -10.18196
 Alpha  occ. eigenvalues --  -10.18046 -10.18019 -10.17936 -10.17929 -10.17910
 Alpha  occ. eigenvalues --  -10.17898 -10.17893 -10.17886 -10.17852 -10.17829
 Alpha  occ. eigenvalues --  -10.17802 -10.17786 -10.17780 -10.17738 -10.17728
 Alpha  occ. eigenvalues --  -10.17704 -10.17687 -10.17623 -10.17612 -10.17593
 Alpha  occ. eigenvalues --  -10.17417 -10.17417 -10.17265 -10.17173 -10.16218
 Alpha  occ. eigenvalues --  -10.16206 -10.15960 -10.15859 -10.15805 -10.14842
 Alpha  occ. eigenvalues --   -8.07015  -8.06895  -6.82715  -6.03336  -6.03248
 Alpha  occ. eigenvalues --   -6.03229  -6.03219  -6.03134  -6.03102  -4.85478
 Alpha  occ. eigenvalues --   -4.83813  -4.83804  -1.90170  -1.89712  -1.89697
 Alpha  occ. eigenvalues --   -1.88305  -1.88303  -1.32441  -1.32415  -1.24824
 Alpha  occ. eigenvalues --   -1.23644  -1.23421  -1.23410  -1.23048  -1.23013
 Alpha  occ. eigenvalues --   -1.10619  -1.09099  -1.07888  -1.05976  -1.04899
 Alpha  occ. eigenvalues --   -1.04439  -1.00968  -0.99491  -0.98259  -0.98182
 Alpha  occ. eigenvalues --   -0.94861  -0.93604  -0.93200  -0.89908  -0.88491
 Alpha  occ. eigenvalues --   -0.88393  -0.88257  -0.87989  -0.87847  -0.87414
 Alpha  occ. eigenvalues --   -0.85777  -0.84129  -0.83887  -0.83707  -0.83178
 Alpha  occ. eigenvalues --   -0.83095  -0.81352  -0.80396  -0.80274  -0.79465
 Alpha  occ. eigenvalues --   -0.79116  -0.78952  -0.78641  -0.78509  -0.78264
 Alpha  occ. eigenvalues --   -0.78178  -0.77761  -0.77415  -0.76795  -0.76249
 Alpha  occ. eigenvalues --   -0.76210  -0.75492  -0.75391  -0.74825  -0.74420
 Alpha  occ. eigenvalues --   -0.74093  -0.73383  -0.73157  -0.72794  -0.72320
 Alpha  occ. eigenvalues --   -0.72049  -0.71824  -0.71739  -0.70583  -0.70478
 Alpha  occ. eigenvalues --   -0.70345  -0.70242  -0.68697  -0.67980  -0.67309
 Alpha  occ. eigenvalues --   -0.66900  -0.66662  -0.65484  -0.65298  -0.64890
 Alpha  occ. eigenvalues --   -0.64661  -0.64536  -0.64233  -0.63506  -0.63300
 Alpha  occ. eigenvalues --   -0.63139  -0.62971  -0.62816  -0.62623  -0.62566
 Alpha  occ. eigenvalues --   -0.62478  -0.61760  -0.61396  -0.61125  -0.60264
 Alpha  occ. eigenvalues --   -0.60164  -0.60065  -0.60047  -0.59652  -0.59636
 Alpha  occ. eigenvalues --   -0.59066  -0.58860  -0.58106  -0.57799  -0.57778
 Alpha  occ. eigenvalues --   -0.57457  -0.57387  -0.57202  -0.56326  -0.55832
 Alpha  occ. eigenvalues --   -0.54952  -0.54803  -0.54665  -0.54228  -0.54045
 Alpha  occ. eigenvalues --   -0.53063  -0.52906  -0.52738  -0.52488  -0.52375
 Alpha  occ. eigenvalues --   -0.52313  -0.51796  -0.51250  -0.51236  -0.51020
 Alpha  occ. eigenvalues --   -0.50625  -0.50543  -0.50125  -0.49900  -0.49818
 Alpha  occ. eigenvalues --   -0.49627  -0.49360  -0.49279  -0.49030  -0.48880
 Alpha  occ. eigenvalues --   -0.48785  -0.48266  -0.48259  -0.48169  -0.48030
 Alpha  occ. eigenvalues --   -0.47921  -0.47873  -0.47817  -0.47612  -0.47461
 Alpha  occ. eigenvalues --   -0.47250  -0.47241  -0.47141  -0.47047  -0.46969
 Alpha  occ. eigenvalues --   -0.46860  -0.46680  -0.46195  -0.46181  -0.46124
 Alpha  occ. eigenvalues --   -0.45741  -0.45676  -0.45618  -0.45311  -0.45195
 Alpha  occ. eigenvalues --   -0.45177  -0.45094  -0.44820  -0.44700  -0.44507
 Alpha  occ. eigenvalues --   -0.44417  -0.44242  -0.44217  -0.44165  -0.44044
 Alpha  occ. eigenvalues --   -0.43982  -0.43808  -0.43641  -0.43574  -0.43213
 Alpha  occ. eigenvalues --   -0.43078  -0.42864  -0.42814  -0.42772  -0.42636
 Alpha  occ. eigenvalues --   -0.42571  -0.42493  -0.42305  -0.42200  -0.42022
 Alpha  occ. eigenvalues --   -0.41738  -0.41718  -0.41595  -0.41416  -0.41213
 Alpha  occ. eigenvalues --   -0.41109  -0.41007  -0.40929  -0.40815  -0.40727
 Alpha  occ. eigenvalues --   -0.40652  -0.40478  -0.40441  -0.40233  -0.40154
 Alpha  occ. eigenvalues --   -0.40000  -0.39933  -0.39761  -0.39686  -0.39402
 Alpha  occ. eigenvalues --   -0.39124  -0.38822  -0.38721  -0.38583  -0.38413
 Alpha  occ. eigenvalues --   -0.38176  -0.37914  -0.37727  -0.37460  -0.37369
 Alpha  occ. eigenvalues --   -0.37232  -0.37114  -0.36850  -0.36740  -0.36690
 Alpha  occ. eigenvalues --   -0.36571  -0.36501  -0.36421  -0.36267  -0.35995
 Alpha  occ. eigenvalues --   -0.35920  -0.35875  -0.35811  -0.35733  -0.35608
 Alpha  occ. eigenvalues --   -0.35340  -0.35223  -0.35048  -0.34742  -0.34693
 Alpha  occ. eigenvalues --   -0.34584  -0.34400  -0.34337  -0.34082  -0.33605
 Alpha  occ. eigenvalues --   -0.33298  -0.33178  -0.32912  -0.32810  -0.32453
 Alpha  occ. eigenvalues --   -0.32020  -0.31744  -0.31291  -0.31150  -0.30897
 Alpha  occ. eigenvalues --   -0.30816  -0.30562  -0.30237  -0.29790  -0.29513
 Alpha  occ. eigenvalues --   -0.29288  -0.28732  -0.28716  -0.28483  -0.28360
 Alpha  occ. eigenvalues --   -0.28124  -0.27940  -0.27591  -0.27467  -0.27412
 Alpha  occ. eigenvalues --   -0.27321  -0.27009  -0.26872  -0.26803  -0.26327
 Alpha  occ. eigenvalues --   -0.26118  -0.25999  -0.25849  -0.25773  -0.25555
 Alpha  occ. eigenvalues --   -0.25173  -0.24541  -0.24118  -0.24071  -0.23982
 Alpha  occ. eigenvalues --   -0.23889  -0.23689  -0.23427  -0.22845  -0.22747
 Alpha  occ. eigenvalues --   -0.21658  -0.21250  -0.21132
 Alpha virt. eigenvalues --   -0.09126  -0.06994  -0.06710  -0.06295  -0.05399
 Alpha virt. eigenvalues --   -0.04836  -0.04231  -0.03874  -0.03182  -0.03127
 Alpha virt. eigenvalues --   -0.02798  -0.02435  -0.02259  -0.02210  -0.01629
 Alpha virt. eigenvalues --   -0.01598  -0.01234  -0.00408   0.00215   0.00352
 Alpha virt. eigenvalues --    0.00412   0.00543   0.01317   0.01486   0.02528
 Alpha virt. eigenvalues --    0.03006   0.03671   0.03970   0.04096   0.04334
 Alpha virt. eigenvalues --    0.04568   0.04776   0.05183   0.05397   0.05457
 Alpha virt. eigenvalues --    0.05640   0.05890   0.05965   0.06035   0.06206
 Alpha virt. eigenvalues --    0.06246   0.06492   0.06617   0.06766   0.06899
 Alpha virt. eigenvalues --    0.07132   0.07317   0.07396   0.07656   0.07809
 Alpha virt. eigenvalues --    0.07978   0.08117   0.08208   0.08558   0.08709
 Alpha virt. eigenvalues --    0.08805   0.09043   0.09091   0.09221   0.09380
 Alpha virt. eigenvalues --    0.09503   0.09548   0.09631   0.09802   0.09858
 Alpha virt. eigenvalues --    0.09971   0.10113   0.10291   0.10307   0.10484
 Alpha virt. eigenvalues --    0.10592   0.10617   0.10712   0.10829   0.10936
 Alpha virt. eigenvalues --    0.10963   0.11095   0.11227   0.11379   0.11425
 Alpha virt. eigenvalues --    0.11670   0.11768   0.11816   0.11955   0.12026
 Alpha virt. eigenvalues --    0.12273   0.12316   0.12449   0.12526   0.12617
 Alpha virt. eigenvalues --    0.12696   0.12789   0.12883   0.13059   0.13162
 Alpha virt. eigenvalues --    0.13419   0.13555   0.13594   0.13706   0.13799
 Alpha virt. eigenvalues --    0.13941   0.13990   0.14074   0.14100   0.14303
 Alpha virt. eigenvalues --    0.14409   0.14527   0.14574   0.14697   0.14724
 Alpha virt. eigenvalues --    0.14903   0.15156   0.15315   0.15417   0.15498
 Alpha virt. eigenvalues --    0.15577   0.15661   0.15894   0.15917   0.16018
 Alpha virt. eigenvalues --    0.16181   0.16284   0.16311   0.16523   0.16641
 Alpha virt. eigenvalues --    0.16956   0.17014   0.17124   0.17405   0.17507
 Alpha virt. eigenvalues --    0.17554   0.17641   0.17737   0.17800   0.17973
 Alpha virt. eigenvalues --    0.18035   0.18258   0.18473   0.18643   0.18707
 Alpha virt. eigenvalues --    0.18775   0.18852   0.18958   0.19137   0.19245
 Alpha virt. eigenvalues --    0.19432   0.19607   0.19628   0.19783   0.19978
 Alpha virt. eigenvalues --    0.20049   0.20138   0.20190   0.20255   0.20370
 Alpha virt. eigenvalues --    0.20415   0.20495   0.20670   0.20726   0.20790
 Alpha virt. eigenvalues --    0.20862   0.20911   0.21134   0.21242   0.21354
 Alpha virt. eigenvalues --    0.21403   0.21471   0.21540   0.21579   0.21802
 Alpha virt. eigenvalues --    0.21876   0.21942   0.22003   0.22184   0.22201
 Alpha virt. eigenvalues --    0.22332   0.22416   0.22501   0.22597   0.22688
 Alpha virt. eigenvalues --    0.22793   0.22830   0.23038   0.23058   0.23157
 Alpha virt. eigenvalues --    0.23305   0.23512   0.23569   0.23654   0.23745
 Alpha virt. eigenvalues --    0.24060   0.24143   0.24236   0.24398   0.24454
 Alpha virt. eigenvalues --    0.24511   0.24621   0.24676   0.24783   0.24871
 Alpha virt. eigenvalues --    0.24979   0.25123   0.25206   0.25241   0.25336
 Alpha virt. eigenvalues --    0.25446   0.25643   0.25724   0.25827   0.25915
 Alpha virt. eigenvalues --    0.25997   0.26103   0.26268   0.26330   0.26443
 Alpha virt. eigenvalues --    0.26671   0.26792   0.26928   0.27030   0.27102
 Alpha virt. eigenvalues --    0.27261   0.27312   0.27495   0.27617   0.27680
 Alpha virt. eigenvalues --    0.27715   0.27822   0.28053   0.28270   0.28339
 Alpha virt. eigenvalues --    0.28450   0.28498   0.28559   0.28734   0.28822
 Alpha virt. eigenvalues --    0.28944   0.29021   0.29185   0.29195   0.29379
 Alpha virt. eigenvalues --    0.29448   0.29522   0.29595   0.29701   0.29738
 Alpha virt. eigenvalues --    0.29884   0.30037   0.30115   0.30284   0.30367
 Alpha virt. eigenvalues --    0.30499   0.30590   0.30784   0.30914   0.31014
 Alpha virt. eigenvalues --    0.31038   0.31200   0.31277   0.31348   0.31408
 Alpha virt. eigenvalues --    0.31483   0.31545   0.31605   0.31721   0.31884
 Alpha virt. eigenvalues --    0.31913   0.31962   0.32140   0.32297   0.32420
 Alpha virt. eigenvalues --    0.32486   0.32619   0.32656   0.32825   0.32919
 Alpha virt. eigenvalues --    0.33057   0.33129   0.33249   0.33301   0.33325
 Alpha virt. eigenvalues --    0.33417   0.33541   0.33608   0.33707   0.33836
 Alpha virt. eigenvalues --    0.33972   0.33999   0.34178   0.34233   0.34423
 Alpha virt. eigenvalues --    0.34507   0.34623   0.34783   0.34841   0.34893
 Alpha virt. eigenvalues --    0.34978   0.35147   0.35241   0.35498   0.35523
 Alpha virt. eigenvalues --    0.35695   0.35784   0.35845   0.35945   0.35992
 Alpha virt. eigenvalues --    0.36193   0.36273   0.36362   0.36485   0.36580
 Alpha virt. eigenvalues --    0.36723   0.36731   0.36873   0.36891   0.37062
 Alpha virt. eigenvalues --    0.37226   0.37344   0.37447   0.37495   0.37548
 Alpha virt. eigenvalues --    0.37622   0.37661   0.37836   0.37920   0.37982
 Alpha virt. eigenvalues --    0.38105   0.38184   0.38258   0.38354   0.38381
 Alpha virt. eigenvalues --    0.38611   0.38671   0.38708   0.39004   0.39046
[...]
 Alpha virt. eigenvalues --    6.06378   6.06490   6.06689   6.07068   6.07460
 Alpha virt. eigenvalues --    6.07858   6.08438   6.09612   6.11096   6.11831
 Alpha virt. eigenvalues --    6.12310   6.12782   6.13026   6.13289   6.15071
 Alpha virt. eigenvalues --    6.16138   6.16552   6.18824   6.20392   6.21483
 Alpha virt. eigenvalues --    6.23468   6.23931   6.24164   6.24667   6.25393
 Alpha virt. eigenvalues --    6.26189   6.31196   6.35021   6.36043   6.40074
 Alpha virt. eigenvalues --    6.40525   6.42038   6.42537   6.43530   6.44117
 Alpha virt. eigenvalues --    6.44969   6.46351   6.47520   6.48221   6.49193
 Alpha virt. eigenvalues --    6.51780   6.54484   6.56034   6.56364   6.56821
 Alpha virt. eigenvalues --    6.57458   6.58557   6.60003   6.61556   6.61589
 Alpha virt. eigenvalues --    6.68410   6.69073   6.69442   6.69800   6.71307
 Alpha virt. eigenvalues --    6.76556   6.77825   6.78713   6.79068   6.79455
 Alpha virt. eigenvalues --    6.79941   6.80036   6.80594   6.81337   6.82522
 Alpha virt. eigenvalues --    6.82893   6.82978   6.83502   6.83862   6.84380
 Alpha virt. eigenvalues --    6.84521   6.85086   6.85175   6.85220   6.85347
 Alpha virt. eigenvalues --    6.85800   6.86117   6.86337   6.86423   6.86652
 Alpha virt. eigenvalues --    6.86948   6.87042   6.87072   6.87517   6.87870
 Alpha virt. eigenvalues --    6.87904   6.89451   6.90362   6.91023   6.92734
 Alpha virt. eigenvalues --    6.93457   6.96738   6.96852   6.97196   6.97400
 Alpha virt. eigenvalues --    6.97518   6.97607   6.98387   6.98819   6.99675
 Alpha virt. eigenvalues --    7.01415   7.01902   7.02115   7.02363   7.03499
 Alpha virt. eigenvalues --    7.04985   7.05008   7.06942   7.07122   7.09012
 Alpha virt. eigenvalues --    7.09673   7.10068   7.10100   7.10248   7.11138
 Alpha virt. eigenvalues --    7.13230   7.13877   7.14535   7.14577   7.15768
 Alpha virt. eigenvalues --    7.20733   7.23349   7.24416   7.25438   7.33306
 Alpha virt. eigenvalues --    7.34705   7.36413   7.36508   7.37184   7.38416
 Alpha virt. eigenvalues --    7.39183   7.39961   7.43695   7.43763   7.45155
 Alpha virt. eigenvalues --    7.45726   7.46187   7.48881   7.49187   7.56818
 Alpha virt. eigenvalues --    7.59060   7.59548   7.59705   7.62605   7.62795
 Alpha virt. eigenvalues --    7.64036   7.64601   7.65844   7.76673   7.91537
 Alpha virt. eigenvalues --    7.92906   7.99994   8.04605   8.26704   8.29848
 Alpha virt. eigenvalues --    8.30158   8.30984   8.32932   8.33460   8.35677
 Alpha virt. eigenvalues --    8.37048   8.45305   8.47989   8.49320   8.50749
 Alpha virt. eigenvalues --    8.56114   8.57542   8.59403   8.59982   8.67511
 Alpha virt. eigenvalues --    8.68897   8.75306   8.76370   8.77209   8.77396
 Alpha virt. eigenvalues --    8.78698   8.80382   8.88831   8.92521   8.94863
 Alpha virt. eigenvalues --    8.97272   8.98033   8.99984   9.01665   9.03215
 Alpha virt. eigenvalues --    9.04245   9.06124   9.09928   9.12379   9.15520
 Alpha virt. eigenvalues --    9.16385   9.19521   9.27825   9.56577   9.62529
 Alpha virt. eigenvalues --    9.77485   9.87343  10.17067  10.19397  22.57325
 Alpha virt. eigenvalues --   22.60279  22.67737  22.70024  22.73479  22.74579
 Alpha virt. eigenvalues --   22.84454  22.88510  22.88773  22.90281  22.92293
 Alpha virt. eigenvalues --   22.96138  22.97556  23.01518  23.03425  23.03956
 Alpha virt. eigenvalues --   23.05111  23.06456  23.06827  23.07034  23.07382
 Alpha virt. eigenvalues --   23.07991  23.10078  23.10617  23.11225  23.11673
 Alpha virt. eigenvalues --   23.13441  23.14013  23.14792  23.15144  23.17137
 Alpha virt. eigenvalues --   23.17949  23.18153  23.18716  23.18895  23.19800
 Alpha virt. eigenvalues --   23.20503  23.21265  23.22626  23.22918  23.23188
 Alpha virt. eigenvalues --   23.23644  23.24464  23.25043  23.25314  23.26107
 Alpha virt. eigenvalues --   23.26538  23.27083  23.27384  23.29977  23.30787
 Alpha virt. eigenvalues --   23.31661  23.32198  23.32421  23.32723  23.35635
 Alpha virt. eigenvalues --   23.36776  23.37173  23.38776  23.39557  23.41217
 Alpha virt. eigenvalues --   23.44949  23.45418  23.47667  23.48390  23.48622
 Alpha virt. eigenvalues --   23.49963  23.53105  23.56047  23.56320  23.56501
 Alpha virt. eigenvalues --   23.60440  23.63664  23.66621  23.72354  23.82063
 Alpha virt. eigenvalues --   23.82458  23.85676  23.89520  23.91646  24.12083
 Alpha virt. eigenvalues --   24.13092  24.14022  24.16880  24.24274  24.29739
 Alpha virt. eigenvalues --   24.38272  24.43711  32.63389  32.66649  32.81810
 Alpha virt. eigenvalues --   33.06904  33.25807  33.31176  34.74766  34.82757
 Alpha virt. eigenvalues --   35.08583  43.31132  44.00485  44.05028  44.13697
 Alpha virt. eigenvalues --   44.24967  44.27581  44.30651  44.38634  44.67826
 Alpha virt. eigenvalues --   57.12003  57.23424  57.25787  57.41759  57.46805
 Alpha virt. eigenvalues --   57.48594  57.49231  57.65583 117.96766
          Condensed to atoms (all electrons):
 Mulliken charges:
               1
     1  C    0.082941
     2  C    0.133817
     3  C    0.022514
     4  C   -0.221440
     5  C    0.234925
     6  N   -0.309894
     7  H    0.137282
     8  C   -0.093190
     9  C    0.152397
    10  C   -0.209181
    11  C   -0.217426
    12  C   -0.109975
    13  H    0.152186
    14  H    0.153881
    15  H    0.144796
    16  C    0.283916
    17  C   -0.018449
    18  C   -0.160876
    19  C   -0.175572
    20  C   -0.125388
    21  H    0.142763
    22  C   -0.134225
    23  H    0.137483
    24  C   -0.133194
    25  H    0.136812
    26  H    0.124030
    27  H    0.139483
    28  F   -0.225080
    29  C   -0.275146
    30  H    0.115616
    31  H    0.110628
    32  H    0.088612
    33  C   -0.018759
    34  C   -0.040061
    35  C   -0.005681
    36  H    0.071178
    37  H    0.113466
    38  C    0.007798
    39  H    0.104563
    40  H    0.099922
    41  H    0.101752
    42  H    0.084954
    43  H    0.105685
    44  H    0.073380
    45  N    0.007857
    46  O   -0.335297
    47  H    0.212805
    48  C   -0.140327
    49  C   -0.192789
    50  C   -0.050867
    51  C   -0.046894
    52  C   -0.145630
    53  C   -0.140585
    54  H    0.153215
    55  H    0.160182
    56  C    0.097647
    57  C   -0.085542
    58  H    0.144090
    59  H    0.151503
    60  C   -0.175499
    61  C   -0.070940
    62  H    0.144240
    63  C    0.042641
    64  C   -0.065023
    65  C   -0.051323
    66  C   -0.131952
    67  C   -0.054473
    68  C   -0.200694
    69  C   -0.091532
    70  C   -0.133759
    71  C   -0.133138
    72  H    0.160234
    73  H    0.146590
    74  C   -0.144041
    75  H    0.145623
    76  H    0.153056
    77  H    0.152086
    78  S    0.910695
    79  O   -0.521156
    80  O   -0.555397
    81  S    0.972026
    82  O   -0.542624
    83  O   -0.568602
    84  N   -0.460084
    85  C    0.074920
    86  C    0.267454
    87  C    0.062619
    88  C    0.218972
    89  C   -0.058334
    90  C   -0.223021
    91  C   -0.172237
    92  C   -0.122844
    93  H    0.192075
    94  C   -0.086052
    95  C   -0.155243
    96  H    0.155929
    97  H    0.160686
    98  H    0.159443
    99  C   -0.100219
   100  C   -0.186187
   101  C   -0.150989
   102  C   -0.133883
   103  H    0.152061
   104  C   -0.138628
   105  C   -0.100273
   106  H    0.155385
   107  H    0.159646
   108  H    0.149553
   109  C    0.555199
   110  F   -0.190058
   111  F   -0.186387
   112  F   -0.188495
   113  C    0.636936
   114  F   -0.199836
   115  F   -0.209682
   116  F   -0.208799
   117  I   -0.000085
   118  N   -0.402496
   119  C    0.392184
   120  C   -0.064281
   121  C   -0.136577
   122  C    0.210942
   123  O   -0.337899
   124  O   -0.369015
   125  H    0.071372
   126  H    0.110126
   127  H    0.094481
   128  H    0.098135
   129  C    0.140571
   130  C   -0.215032
   131  C    0.009002
   132  C   -0.164904
   133  C    0.170935
   134  N   -0.222628
   135  H    0.138743
   136  C   -0.149476
   137  C    0.115901
   138  C   -0.172188
   139  C   -0.199862
   140  C   -0.130202
   141  H    0.155461
   142  H    0.160710
   143  H    0.149760
   144  C    0.323056
   145  C    0.025530
   146  C   -0.191643
   147  C   -0.087629
   148  C   -0.185006
   149  H    0.150798
   150  C   -0.214825
   151  H    0.143198
   152  C   -0.145673
   153  H    0.148149
   154  H    0.154215
   155  H    0.162085
   156  F   -0.219477
   157  C   -0.263317
   158  H    0.111450
   159  H    0.107831
   160  H    0.090877
   161  C    0.016920
   162  C   -0.054122
   163  C    0.012663
   164  H    0.123580
   165  H    0.074071
   166  C   -0.002625
   167  H    0.092358
   168  H    0.089712
   169  H    0.096097
   170  H    0.087814
   171  H    0.097314
   172  H    0.067712
   173  N   -0.117789
   174  O   -0.365627
   175  H    0.137860
   176  H    0.291487
 Sum of Mulliken charges =  -0.00000
 Mulliken charges with hydrogens summed into heavy atoms:
               1
     1  C    0.082941
     2  C    0.346623
     3  C    0.022514
     4  C   -0.084157
     5  C    0.234925
     6  N   -0.309894
     8  C   -0.093190
     9  C    0.152397
    10  C   -0.056995
    11  C   -0.072631
    12  C    0.043905
    16  C    0.283916
    17  C   -0.018449
    18  C   -0.018113
    19  C   -0.038089
    20  C    0.011423
    22  C   -0.010195
    24  C    0.006289
    28  F   -0.225080
    29  C    0.039710
    33  C    0.165885
    34  C    0.164424
    35  C    0.181025
    38  C    0.186863
    45  N    0.007857
    46  O   -0.335297
    48  C    0.012888
    49  C   -0.032607
    50  C   -0.050867
    51  C   -0.046894
    52  C   -0.001539
    53  C    0.010918
    56  C    0.097647
    57  C    0.058699
    60  C   -0.175499
    61  C   -0.070940
    63  C    0.042641
    64  C   -0.065023
    65  C   -0.051323
    66  C   -0.131952
    67  C   -0.054473
    68  C   -0.040460
    69  C    0.055058
    70  C    0.011865
    71  C    0.019918
    74  C    0.008045
    78  S    0.910695
    79  O   -0.521156
    80  O   -0.555397
    81  S    0.972026
    82  O   -0.542624
    83  O   -0.568602
    84  N   -0.460084
    85  C    0.074920
    86  C    0.267454
    87  C    0.062619
    88  C    0.218972
    89  C   -0.058334
    90  C   -0.030947
    91  C   -0.172237
    92  C    0.033085
    94  C    0.074633
    95  C    0.004200
    99  C   -0.100219
   100  C   -0.034126
   101  C   -0.150989
   102  C    0.021503
   104  C    0.021018
   105  C    0.049280
   109  C    0.555199
   110  F   -0.190058
   111  F   -0.186387
   112  F   -0.188495
   113  C    0.636936
   114  F   -0.199836
   115  F   -0.209682
   116  F   -0.208799
   117  I   -0.000085
   118  N   -0.402496
   119  C    0.392184
   120  C    0.117217
   121  C    0.056039
   122  C    0.210942
   123  O   -0.337899
   124  O   -0.077528
   129  C    0.140571
   130  C   -0.077171
   131  C    0.009002
   132  C   -0.026161
   133  C    0.170935
   134  N   -0.222628
   136  C   -0.149476
   137  C    0.115901
   138  C   -0.016727
   139  C   -0.050102
   140  C    0.030508
   144  C    0.323056
   145  C    0.025530
   146  C   -0.040845
   147  C    0.055569
   148  C   -0.036856
   150  C   -0.060610
   152  C    0.016412
   156  F   -0.219477
   157  C    0.046841
   161  C    0.214571
   162  C    0.127947
   163  C    0.196574
   166  C    0.162401
   173  N   -0.117789
   174  O   -0.365627
 Electronic spatial extent (au):  <R**2>=         146181.3711
 Charge=             -0.0000 electrons
 Dipole moment (field-independent basis, Debye):
    X=             -5.7083    Y=            -15.3815    Z=             15.6533  Tot=             22.6760
 Quadrupole moment (field-independent basis, Debye-Ang):
   XX=           -614.7269   YY=           -540.6910   ZZ=           -563.8304
   XY=             31.9967   XZ=            -54.2830   YZ=            -64.2141
 Traceless Quadrupole moment (field-independent basis, Debye-Ang):
   XX=            -41.6442   YY=             32.3918   ZZ=              9.2524
   XY=             31.9967   XZ=            -54.2830   YZ=            -64.2141
 Octapole moment (field-independent basis, Debye-Ang**2):
  XXX=           1284.9542  YYY=           4178.5372  ZZZ=          -2177.6914  XYY=             41.3967
  XXY=            990.4936  XXZ=           -826.7819  XZZ=             99.9946  YZZ=           1139.9368
  YYZ=           -512.0058  XYZ=            349.9469
 Hexadecapole moment (field-independent basis, Debye-Ang**3):
 XXXX=         -61492.8104 YYYY=         -80506.7628 ZZZZ=         -35807.5017 XXXY=         -17104.0560
 XXXZ=          10416.4956 YYYX=         -13241.4607 YYYZ=          11189.7605 ZZZX=           8848.7992
 ZZZY=          10479.1087 XXYY=         -21726.1288 XXZZ=         -16397.2650 YYZZ=         -18832.4523
 XXYZ=           3334.5306 YYXZ=           1466.1848 ZZXY=          -4275.9678
 N-N= 2.720412205985D+04 E-N=-6.873095635567D+04  KE= 5.931145202606D+03
 Leave Link  601 at Sun Feb 23 13:02:05 2025, MaxMem=  6442450944 cpu:              56.1 elap:               2.9
 (Enter /ihome/crc/install/gaussian/c01/avx2/tar/g16/l9999.exe)
 Unable to Open any file for archive entry.
 1\1\GINC-SMP-N191\SP\RB3LYP\def2TZVPP\C86H65F8I1N6O8S2\BIM12\23-Feb-20
 25\0\\#p b3lyp def2tzvpp scf=maxcycle=128 nosymm scrf=(smd,solvent=pro
 pylethanoate) empiricaldispersion=gd3bj\\alkyneCF3_S-ax-S_01_iodi_TS\\
 0,1\C,0,0.3388,-3.911262,-0.453036\C,0,-0.689255,-3.138887,0.263547\C,
 0,-0.321572,-2.75182,1.6327\C,0,0.904542,-3.083187,2.121084\C,0,1.8581
 08,-3.725252,1.267602\N,0,1.490565,-4.229782,0.043808\H,0,1.165741,-2.
 779351,3.131224\C,0,0.028958,-4.429339,-1.822984\C,0,0.01331,-3.604224
 ,-2.961195\C,0,-0.41908,-4.143633,-4.181123\C,0,-0.721102,-6.319472,-3
 .173371\C,0,-0.792161,-5.48104,-4.28418\H,0,-0.428835,-3.502956,-5.064
 399\H,0,-1.12379,-5.881961,-5.24299\H,0,-0.990495,-7.374918,-3.217504\
 C,0,-0.304094,-5.775842,-1.969674\C,0,0.530416,-2.209148,-2.915708\C,0
 ,1.829272,-1.963534,-2.4498\C,0,-0.228152,-1.142067,-3.416254\C,0,2.36
 0689,-0.67545,-2.487173\H,0,2.430083,-2.792921,-2.070405\C,0,0.303452,
 0.144164,-3.445806\H,0,-1.2468,-1.324464,-3.765346\C,0,1.599134,0.3796
 43,-2.984217\H,0,3.368401,-0.493914,-2.111593\H,0,-0.304901,0.973632,-
 3.80755\H,0,2.00744,1.392058,-2.995575\F,0,-0.249648,-6.567788,-0.8903
 95\C,0,-1.258257,-1.94805,2.466874\H,0,-1.014149,-0.89069,2.298861\H,0
 ,-2.306992,-2.117388,2.201044\H,0,-1.098819,-2.133191,3.538192\C,0,4.0
 95123,-4.632061,0.799852\C,0,3.767755,-3.242158,2.757087\C,0,4.749701,
 -5.663109,1.711674\H,0,4.859524,-3.939165,0.41504\H,0,3.580494,-5.1109
 61,-0.036598\C,0,4.438348,-4.325716,3.590594\H,0,4.526555,-2.537724,2.
 382193\H,0,3.047459,-2.672614,3.347859\H,0,5.528122,-6.203413,1.157113
 \H,0,3.985046,-6.392333,2.042345\H,0,4.986892,-3.865732,4.42253\H,0,3.
 664367,-4.998624,4.00826\N,0,3.137376,-3.853942,1.588665\O,0,5.361251,
 -5.055194,2.821476\H,0,-1.12672,-2.313987,-0.322298\C,0,0.102289,4.030
 267,5.333176\C,0,0.335428,3.603855,4.047349\C,0,-0.631277,2.823394,3.3
 52398\C,0,-1.833186,2.475069,4.031707\C,0,-2.052883,2.940458,5.358565\
 C,0,-1.107762,3.705091,5.995219\H,0,0.859123,4.62118,5.851426\H,0,1.27
 7286,3.853746,3.55858\C,0,-0.425566,2.352907,2.011531\C,0,-2.783534,1.
 651082,3.385059\H,0,-2.984625,2.668503,5.858674\H,0,-1.27903,4.056441,
 7.013968\C,0,-2.560217,1.149878,2.116491\C,0,-1.352796,1.506881,1.4279
 96\H,0,-3.703357,1.385007,3.90893\C,0,0.812861,2.808231,1.288085\C,0,1
 .839416,1.945131,0.945349\C,0,0.900173,4.196698,0.931202\C,0,3.016044,
 2.425429,0.285623\C,0,2.081882,4.677334,0.29749\C,0,-0.1619,5.116882,1
 .1613\C,0,3.126197,3.77342,-0.002254\C,0,2.188443,6.054112,-0.047444\C
 ,0,-0.036678,6.439058,0.807046\H,0,-1.091136,4.766584,1.61048\H,0,4.02
 9845,4.142246,-0.490877\C,0,1.153571,6.91864,0.205734\H,0,3.106575,6.4
 0151,-0.525262\H,0,-0.865426,7.125972,0.985641\H,0,1.238019,7.972401,-
 0.064459\S,0,-0.879103,0.763575,-0.140662\O,0,-0.56197,1.868297,-0.995
 76\O,0,-1.922835,-0.112628,-0.584274\S,0,1.535453,0.197551,1.216903\O,
 0,1.140239,0.094926,2.595719\O,0,2.684853,-0.57765,0.852543\N,0,0.3673
 36,-0.137086,0.216005\C,0,-3.546253,0.254636,1.580675\C,0,-4.379481,-0
 .543924,1.205846\C,0,4.10424,1.579813,-0.1061\C,0,5.053033,0.923081,-0
 .480251\C,0,6.071221,0.010874,-0.903557\C,0,5.828492,-1.367453,-0.7816
 08\C,0,7.295908,0.441281,-1.44969\C,0,6.78652,-2.287967,-1.197498\H,0,
 4.873906,-1.687229,-0.356589\C,0,8.249957,-0.484639,-1.860699\C,0,7.99
 6196,-1.850484,-1.736095\H,0,6.587816,-3.356919,-1.102614\H,0,9.193302
 ,-0.13633,-2.281458\H,0,8.746051,-2.571955,-2.062492\C,0,-5.279689,-1.
 495718,0.625063\C,0,-5.467065,-1.48117,-0.766178\C,0,-5.961349,-2.4638
 2,1.389237\C,0,-6.329687,-2.388652,-1.373052\H,0,-4.915312,-0.750568,-
 1.35825\C,0,-6.83775,-3.355551,0.777254\C,0,-7.02635,-3.318914,-0.6035
 56\H,0,-6.45785,-2.368925,-2.456147\H,0,-7.369806,-4.088066,1.386275\H
 ,0,-7.704885,-4.027584,-1.079909\C,0,7.564368,1.917697,-1.582324\F,0,7
 .535234,2.537215,-0.397884\F,0,8.761017,2.160677,-2.121318\F,0,6.65670
 5,2.52361,-2.354794\C,0,-5.719398,-2.551275,2.87239\F,0,-6.125597,-1.4
 53973,3.521845\F,0,-6.359628,-3.588748,3.42377\F,0,-4.421552,-2.701367
 ,3.159046\I,0,-2.531061,-4.453566,0.40795\N,0,-4.654577,-5.855697,0.70
 4465\C,0,-5.016659,-6.096277,1.941481\C,0,-6.371639,-6.753522,2.074666
 \C,0,-6.811904,-6.887789,0.620499\C,0,-5.644429,-6.295463,-0.175708\O,
 0,-5.575539,-6.221617,-1.374636\O,0,-4.269493,-5.767741,2.913888\H,0,-
 6.269615,-7.715257,2.593755\H,0,-7.017037,-6.110333,2.691556\H,0,-7.72
 6457,-6.327226,0.380776\H,0,-6.968518,-7.927955,0.303279\C,0,-4.854847
 ,-7.616324,5.741449\C,0,-5.244568,-7.790892,7.056918\C,0,-5.117073,-6.
 706692,7.952106\C,0,-4.547136,-5.526672,7.503625\C,0,-4.113047,-5.4276
 89,6.158164\N,0,-4.355141,-6.442787,5.309445\H,0,-4.378007,-4.705789,8
 .199159\C,0,-4.971303,-8.676733,4.700972\C,0,-3.962082,-8.915993,3.734
 41\C,0,-4.226029,-9.802811,2.68118\C,0,-6.424992,-10.284198,3.550858\C
 ,0,-5.441876,-10.477174,2.585249\H,0,-3.444421,-9.990355,1.943676\H,0,
 -5.618344,-11.169291,1.760763\H,0,-7.388488,-10.793354,3.517583\C,0,-6
 .16857,-9.391641,4.581592\C,0,-2.601557,-8.306423,3.809424\C,0,-1.8743
 13,-8.3137,5.009166\C,0,-2.004847,-7.764521,2.662356\C,0,-0.583769,-7.
 790632,5.058877\H,0,-2.321746,-8.744475,5.908098\C,0,-0.714201,-7.2363
 9,2.71284\H,0,-2.562713,-7.72797,1.723029\C,0,-0.000275,-7.248712,3.91
 0731\H,0,-0.028269,-7.811334,5.998304\H,0,-0.276021,-6.80793,1.8091\H,
 0,1.010399,-6.83737,3.951014\F,0,-7.14217,-9.174836,5.472144\C,0,-5.56
 0761,-6.864856,9.377194\H,0,-6.644365,-7.051914,9.415933\H,0,-5.065959
 ,-7.731192,9.839887\H,0,-5.338467,-5.97064,9.972388\C,0,-2.366569,-4.5
 44005,4.665369\C,0,-3.394716,-3.054004,6.289724\C,0,-1.026951,-4.19768
 7,5.300907\H,0,-2.562425,-3.908214,3.790521\H,0,-2.345004,-5.582915,4.
 320515\C,0,-2.011667,-2.770393,6.858884\H,0,-3.620987,-2.301367,5.5157
 5\H,0,-4.166345,-2.976702,7.064552\H,0,-0.236267,-4.227278,4.53729\H,0
 ,-0.78575,-4.945747,6.082447\H,0,-1.957643,-1.740877,7.237655\H,0,-1.8
 00482,-3.466362,7.694545\N,0,-3.432589,-4.362051,5.653174\O,0,-1.02576
 2,-2.904367,5.861267\H,0,-5.646184,-8.745973,7.393152\H,0,-4.385643,-6
 .129456,3.962097\\Version=ES64L-G16RevC.01\HF=-6141.9996877\RMSD=2.682
 e-09\Dipole=-2.2458253,-6.0515313,6.1584737\Quadrupole=-30.9614059,24.
 0825074,6.8788985,23.7887902,-40.3581099,-47.7415757\PG=C01 [X(C86H65F
 8I1N6O8S2)]\\@
 The archive entry for this job was punched.


 IF I HAVE SEEN FARTHER, IT IS BY STANDING ON THE
 SHOULDERS OF GIANTS. -- SIR ISAAC NEWTON
 Job cpu time:       3 days 16 hours 52 minutes 16.4 seconds.
 Elapsed time:       0 days  2 hours 47 minutes 31.3 seconds.
 File lengths (MBytes):  RWF=  12553 Int=      0 D2E=      0 Chk=   1110 Scr=      1
 Normal termination of Gaussian 16 at Sun Feb 23 13:02:08 2025.
