 Entering Gaussian System, Link 0=g16
 Initial command:
 /opt/packages/gaussian/g16RevC.01/g16/l1.exe "/local/Gau-99900.inp" -scrdir="/local/"
 Entering Link 1 = /opt/packages/gaussian/g16RevC.01/g16/l1.exe PID=     99903.
  
 Copyright (c) 1988-2019, Gaussian, Inc.  All Rights Reserved.
  
 This is part of the Gaussian(R) 16 program.  It is based on
 the Gaussian(R) 09 system (copyright 2009, Gaussian, Inc.),
 the Gaussian(R) 03 system (copyright 2003, Gaussian, Inc.),
 the Gaussian(R) 98 system (copyright 1998, Gaussian, Inc.),
 the Gaussian(R) 94 system (copyright 1995, Gaussian, Inc.),
 the Gaussian 92(TM) system (copyright 1992, Gaussian, Inc.),
 the Gaussian 90(TM) system (copyright 1990, Gaussian, Inc.),
 the Gaussian 88(TM) system (copyright 1988, Gaussian, Inc.),
 the Gaussian 86(TM) system (copyright 1986, Carnegie Mellon
 University), and the Gaussian 82(TM) system (copyright 1983,
 Carnegie Mellon University). Gaussian is a federally registered
 trademark of Gaussian, Inc.
  
 This software contains proprietary and confidential information,
 including trade secrets, belonging to Gaussian, Inc.
  
 This software is provided under written license and may be
 used, copied, transmitted, or stored only in accord with that
 written license.
  
 The following legend is applicable only to US Government
 contracts under FAR:
  
                    RESTRICTED RIGHTS LEGEND
  
 Use, reproduction and disclosure by the US Government is
 subject to restrictions as set forth in subparagraphs (a)
 and (c) of the Commercial Computer Software - Restricted
 Rights clause in FAR 52.227-19.
  
 Gaussian, Inc.
 340 Quinnipiac St., Bldg. 40, Wallingford CT 06492
  
  
 ---------------------------------------------------------------
 Warning -- This program may not be used in any manner that
 competes with the business of Gaussian, Inc. or will provide
 assistance to any competitor of Gaussian, Inc.  The licensee
 of this program is prohibited from giving any competitor of
 Gaussian, Inc. access to this program.  By using this program,
 the user acknowledges that Gaussian, Inc. is engaged in the
 business of creating and licensing software in the field of
 computational chemistry and represents and warrants to the
 licensee that it is not a competitor of Gaussian, Inc. and that
 it will not use this program in any manner prohibited above.
 ---------------------------------------------------------------
  

 Cite this work as:
 Gaussian 16, Revision C.01,
 M. J. Frisch, G. W. Trucks, H. B. Schlegel, G. E. Scuseria, 
 M. A. Robb, J. R. Cheeseman, G. Scalmani, V. Barone, 
 G. A. Petersson, H. Nakatsuji, X. Li, M. Caricato, A. V. Marenich, 
 J. Bloino, B. G. Janesko, R. Gomperts, B. Mennucci, H. P. Hratchian, 
 J. V. Ortiz, A. F. Izmaylov, J. L. Sonnenberg, D. Williams-Young, 
 F. Ding, F. Lipparini, F. Egidi, J. Goings, B. Peng, A. Petrone, 
 T. Henderson, D. Ranasinghe, V. G. Zakrzewski, J. Gao, N. Rega, 
 G. Zheng, W. Liang, M. Hada, M. Ehara, K. Toyota, R. Fukuda, 
 J. Hasegawa, M. Ishida, T. Nakajima, Y. Honda, O. Kitao, H. Nakai, 
 T. Vreven, K. Throssell, J. A. Montgomery, Jr., J. E. Peralta, 
 F. Ogliaro, M. J. Bearpark, J. J. Heyd, E. N. Brothers, K. N. Kudin, 
 V. N. Staroverov, T. A. Keith, R. Kobayashi, J. Normand, 
 K. Raghavachari, A. P. Rendell, J. C. Burant, S. S. Iyengar, 
 J. Tomasi, M. Cossi, J. M. Millam, M. Klene, C. Adamo, R. Cammi, 
 J. W. Ochterski, R. L. Martin, K. Morokuma, O. Farkas, 
 J. B. Foresman, and D. J. Fox, Gaussian, Inc., Wallingford CT, 2019.
 
 ******************************************
 Gaussian 16:  ES64L-G16RevC.01  3-Jul-2019
                11-Jun-2024 
 ******************************************
 %nprocshared=32
 Will use up to   32 processors via shared memory.
 %mem=64GB
 ----------------------------------------------------------------------
 #p b3lyp def2tzvpp scf=maxcycle=128 nosymm scrf=(smd,solvent=propyleth
 anoate) empiricaldispersion=gd3bj
 ----------------------------------------------------------------------
 1/38=1,172=1/1;
 2/12=2,15=1,17=6,18=5,40=1/2;
 3/5=44,7=202,11=2,25=1,30=1,70=32201,72=169,74=-5,124=41/1,2,3;
 4//1;
 5/5=2,7=128,38=5,53=169/2;
 6/7=2,8=2,9=2,10=2,28=1/1;
 99/5=1,9=1/99;
 Leave Link    1 at Tue Jun 11 17:58:36 2024, MaxMem=  8589934592 cpu:               0.8 elap:               0.0
 (Enter /opt/packages/gaussian/g16RevC.01/g16/l101.exe)
 -------------------
 Title Card Required
 -------------------
 Symbolic Z-matrix:
 Charge =  0 Multiplicity = 1
 C                    -0.29717  -3.01416   0.18695 
 C                    -1.22293  -1.90153   0.36891 
 C                    -1.26394  -1.36281   1.72923 
 C                    -0.24181  -1.65932   2.57954 
 C                     0.80543  -2.54014   2.15567 
 N                     0.67515  -3.27272   1.00926 
 H                    -0.2236   -1.19703   3.56241 
 C                    -0.48941  -3.97174  -0.94628 
 C                    -0.18301  -3.68979  -2.28617 
 C                    -0.54944  -4.61244  -3.27513 
 C                    -1.48159  -6.10046  -1.61382 
 C                    -1.19187  -5.80321  -2.94406 
 H                    -0.30574  -4.39202  -4.3157 
 H                    -1.46522  -6.51117  -3.72772 
 H                    -1.98745  -7.01903  -1.31524 
 C                    -1.12584  -5.17561  -0.64564 
 C                     0.53607  -2.44497  -2.66305 
 C                     1.80063  -2.17593  -2.12522 
 C                    -0.01321  -1.5615   -3.60277 
 C                     2.51276  -1.04965  -2.5347 
 H                     2.2326   -2.86786  -1.39853 
 C                     0.69294  -0.42706  -3.99389 
 H                    -1.00631  -1.76092  -4.01132 
 C                     1.95854  -0.17143  -3.46432 
 H                     3.50241  -0.85507  -2.1213 
 H                     0.24668   0.27219  -4.70184 
 H                     2.50734   0.72193  -3.7676 
 F                    -1.45364  -5.41365   0.6305 
 C                    -2.32223  -0.38545   2.11468 
 H                    -2.09195   0.08867   3.07548 
 H                    -2.40003   0.39326   1.33975 
 H                    -3.30338  -0.87999   2.16795 
 C                     2.90627  -3.75792   2.54894 
 C                     2.28977  -1.9669    4.05005 
 C                     3.0509   -4.66186   3.76827 
 H                     3.86851  -3.26379   2.34571 
 H                     2.58679  -4.3228    1.66907 
 C                     2.46563  -2.93322   5.21521 
 H                     3.24794  -1.46696   3.83617 
 H                     1.55148  -1.19658   4.28506 
 H                     3.84081  -5.40259   3.5871 
 H                     2.09803  -5.1981    3.94052 
 H                     2.82523  -2.38985   6.09864 
 H                     1.48809  -3.39324   5.45693 
 N                     1.92078  -2.71987   2.85441 
 O                     3.41405  -3.9244    4.90926 
 I                    -3.10454  -2.09649  -0.61253 
 H                    -0.68703  -0.82964  -0.20076 
 C                    -0.11464   6.08763   2.99889 
 C                     0.22624   5.24107   1.97104 
 C                    -0.76593   4.4607    1.313 
 C                    -2.11224   4.55581   1.76761 
 C                    -2.4375    5.44894   2.82656 
 C                    -1.4607    6.20305   3.42653 
 H                     0.66097   6.67345   3.49452 
 H                     1.26945   5.15907   1.66621 
 C                    -0.45802   3.562     0.2371 
 C                    -3.10471   3.73614   1.18268 
 H                    -3.47681   5.51185   3.15453 
 H                    -1.71377   6.8839    4.24063 
 C                    -2.79942   2.83217   0.18218 
 C                    -1.45089   2.76024  -0.29571 
 H                    -4.1319    3.79918   1.54638 
 C                     0.96382   3.495    -0.24047 
 C                     1.75007   2.36915  -0.0634 
 C                     1.50273   4.64002  -0.91554 
 C                     3.12492   2.35531  -0.4653 
 C                     2.871     4.63089  -1.30956 
 C                     0.71449   5.78273  -1.23055 
 C                     3.65942   3.48587  -1.05556 
 C                     3.423     5.76663  -1.96563 
 C                     1.27061   6.8608   -1.87641 
 H                    -0.34365   5.7975   -0.96911 
 H                     4.71115   3.48496  -1.347 
 C                     2.6406    6.85989  -2.23986 
 H                     4.47618   5.74269  -2.25172 
 H                     0.64969   7.72513  -2.1167 
 H                     3.06645   7.72692  -2.74712 
 S                    -0.92911   1.50743  -1.46013 
 O                    -0.08067   2.16112  -2.40317 
 O                    -2.05295   0.79482  -1.96627 
 S                     0.95176   0.92537   0.62326 
 O                     0.29217   1.37092   1.8136 
 O                     1.8717   -0.15914   0.76885 
 N                    -0.11617   0.4735   -0.51307 
 C                    -3.86229   1.98586  -0.2763 
 C                    -4.81235   1.28368  -0.55119 
 C                     4.00306   1.23882  -0.28632 
 C                     4.80765   0.33579  -0.19718 
 C                     5.6102   -0.84707  -0.12789 
 C                     4.96293  -2.07736   0.06773 
 C                     7.00973  -0.82921  -0.28367 
 C                     5.69735  -3.26009   0.1007 
 H                     3.87694  -2.07668   0.18953 
 C                     7.73825  -2.01373  -0.24384 
 C                     7.08272  -3.2309   -0.05402 
 H                     5.18314  -4.21186   0.24573 
 H                     8.82115  -1.98547  -0.3653 
 H                     7.65864  -4.15665  -0.02912 
 C                    -5.87164   0.38379  -0.8946 
 C                    -5.9044   -0.19184  -2.17422 
 C                    -6.86145   0.02116   0.04036 
 C                    -6.90289  -1.10221  -2.51031 
 H                    -5.13053   0.08236  -2.89222 
 C                    -7.85765  -0.88818  -0.30202 
 C                    -7.88007  -1.4504   -1.57845 
 H                    -6.91611  -1.54306  -3.50821 
 H                    -8.61542  -1.16063   0.43269 
 H                    -8.66231  -2.16331  -1.84159 
 C                     7.70882   0.48846  -0.49411 
 F                     7.50525   1.32702   0.52674 
 F                     9.02817   0.33891  -0.62207 
 F                     7.27585   1.1123   -1.59521 
 C                    -6.81365   0.60281   1.42944 
 F                    -6.85973   1.93944   1.41861 
 F                    -7.83333   0.18353   2.18074 
 F                    -5.68978   0.26354   2.07294 
 
 ITRead=  0  0  0  0  0  0  0  0  0  0  0  0  0  0  0  0  0  0  0  0
 ITRead=  0  0  0  0  0  0  0  0  0  0  0  0  0  0  0  0  0  0  0  0
 ITRead=  0  0  0  0  0  0  0  0  0  0  0  0  0  0  0  0  0  0  0  0
 ITRead=  0  0  0  0  0  0  0  0  0  0  0  0  0  0  0  0  0  0  0  0
 ITRead=  0  0  0  0  0  0  0  0  0  0  0  0  0  0  0  0  0  0  0  0
 ITRead=  0  0  0  0  0  0  0  0  0  0  0  0  0  0  0  0  0
 MicOpt= -1 -1 -1 -1 -1 -1 -1 -1 -1 -1 -1 -1 -1 -1 -1 -1 -1 -1 -1 -1
 MicOpt= -1 -1 -1 -1 -1 -1 -1 -1 -1 -1 -1 -1 -1 -1 -1 -1 -1 -1 -1 -1
 MicOpt= -1 -1 -1 -1 -1 -1 -1 -1 -1 -1 -1 -1 -1 -1 -1 -1 -1 -1 -1 -1
 MicOpt= -1 -1 -1 -1 -1 -1 -1 -1 -1 -1 -1 -1 -1 -1 -1 -1 -1 -1 -1 -1
 MicOpt= -1 -1 -1 -1 -1 -1 -1 -1 -1 -1 -1 -1 -1 -1 -1 -1 -1 -1 -1 -1
 MicOpt= -1 -1 -1 -1 -1 -1 -1 -1 -1 -1 -1 -1 -1 -1 -1 -1 -1
 NAtoms=    117 NQM=      117 NQMF=       0 NMMI=      0 NMMIF=      0
                NMic=       0 NMicF=      0.
                    Isotopes and Nuclear Properties:
 (Nuclear quadrupole moments (NQMom) in fm**2, nuclear magnetic moments (NMagM)
  in nuclear magnetons)

  Atom         1           2           3           4           5           6           7           8           9          10
 IAtWgt=          12          12          12          12          12          14           1          12          12          12
 AtmWgt=  12.0000000  12.0000000  12.0000000  12.0000000  12.0000000  14.0030740   1.0078250  12.0000000  12.0000000  12.0000000
 NucSpn=           0           0           0           0           0           2           1           0           0           0
 AtZEff=   0.0000000   0.0000000   0.0000000   0.0000000   0.0000000   0.0000000   0.0000000   0.0000000   0.0000000   0.0000000
 NQMom=    0.0000000   0.0000000   0.0000000   0.0000000   0.0000000   2.0440000   0.0000000   0.0000000   0.0000000   0.0000000
 NMagM=    0.0000000   0.0000000   0.0000000   0.0000000   0.0000000   0.4037610   2.7928460   0.0000000   0.0000000   0.0000000
 AtZNuc=   6.0000000   6.0000000   6.0000000   6.0000000   6.0000000   7.0000000   1.0000000   6.0000000   6.0000000   6.0000000

  Atom        11          12          13          14          15          16          17          18          19          20
 IAtWgt=          12          12           1           1           1          12          12          12          12          12
 AtmWgt=  12.0000000  12.0000000   1.0078250   1.0078250   1.0078250  12.0000000  12.0000000  12.0000000  12.0000000  12.0000000
 NucSpn=           0           0           1           1           1           0           0           0           0           0
 AtZEff=   0.0000000   0.0000000   0.0000000   0.0000000   0.0000000   0.0000000   0.0000000   0.0000000   0.0000000   0.0000000
 NQMom=    0.0000000   0.0000000   0.0000000   0.0000000   0.0000000   0.0000000   0.0000000   0.0000000   0.0000000   0.0000000
 NMagM=    0.0000000   0.0000000   2.7928460   2.7928460   2.7928460   0.0000000   0.0000000   0.0000000   0.0000000   0.0000000
 AtZNuc=   6.0000000   6.0000000   1.0000000   1.0000000   1.0000000   6.0000000   6.0000000   6.0000000   6.0000000   6.0000000

  Atom        21          22          23          24          25          26          27          28          29          30
 IAtWgt=           1          12           1          12           1           1           1          19          12           1
 AtmWgt=   1.0078250  12.0000000   1.0078250  12.0000000   1.0078250   1.0078250   1.0078250  18.9984032  12.0000000   1.0078250
 NucSpn=           1           0           1           0           1           1           1           1           0           1
 AtZEff=   0.0000000   0.0000000   0.0000000   0.0000000   0.0000000   0.0000000   0.0000000   0.0000000   0.0000000   0.0000000
 NQMom=    0.0000000   0.0000000   0.0000000   0.0000000   0.0000000   0.0000000   0.0000000   0.0000000   0.0000000   0.0000000
 NMagM=    2.7928460   0.0000000   2.7928460   0.0000000   2.7928460   2.7928460   2.7928460   2.6288670   0.0000000   2.7928460
 AtZNuc=   1.0000000   6.0000000   1.0000000   6.0000000   1.0000000   1.0000000   1.0000000   9.0000000   6.0000000   1.0000000

  Atom        31          32          33          34          35          36          37          38          39          40
 IAtWgt=           1           1          12          12          12           1           1          12           1           1
 AtmWgt=   1.0078250   1.0078250  12.0000000  12.0000000  12.0000000   1.0078250   1.0078250  12.0000000   1.0078250   1.0078250
 NucSpn=           1           1           0           0           0           1           1           0           1           1
 AtZEff=   0.0000000   0.0000000   0.0000000   0.0000000   0.0000000   0.0000000   0.0000000   0.0000000   0.0000000   0.0000000
 NQMom=    0.0000000   0.0000000   0.0000000   0.0000000   0.0000000   0.0000000   0.0000000   0.0000000   0.0000000   0.0000000
 NMagM=    2.7928460   2.7928460   0.0000000   0.0000000   0.0000000   2.7928460   2.7928460   0.0000000   2.7928460   2.7928460
 AtZNuc=   1.0000000   1.0000000   6.0000000   6.0000000   6.0000000   1.0000000   1.0000000   6.0000000   1.0000000   1.0000000

  Atom        41          42          43          44          45          46          47          48          49          50
 IAtWgt=           1           1           1           1          14          16         127           1          12          12
 AtmWgt=   1.0078250   1.0078250   1.0078250   1.0078250  14.0030740  15.9949146 126.9004000   1.0078250  12.0000000  12.0000000
 NucSpn=           1           1           1           1           2           0           5           1           0           0
 AtZEff=   0.0000000   0.0000000   0.0000000   0.0000000   0.0000000   0.0000000   0.0000000   0.0000000   0.0000000   0.0000000
 NQMom=    0.0000000   0.0000000   0.0000000   0.0000000   2.0440000   0.0000000 -71.0000000   0.0000000   0.0000000   0.0000000
 NMagM=    2.7928460   2.7928460   2.7928460   2.7928460   0.4037610   0.0000000   2.8132800   2.7928460   0.0000000   0.0000000
 AtZNuc=   1.0000000   1.0000000   1.0000000   1.0000000   7.0000000   8.0000000  53.0000000   1.0000000   6.0000000   6.0000000

  Atom        51          52          53          54          55          56          57          58          59          60
 IAtWgt=          12          12          12          12           1           1          12          12           1           1
 AtmWgt=  12.0000000  12.0000000  12.0000000  12.0000000   1.0078250   1.0078250  12.0000000  12.0000000   1.0078250   1.0078250
 NucSpn=           0           0           0           0           1           1           0           0           1           1
 AtZEff=   0.0000000   0.0000000   0.0000000   0.0000000   0.0000000   0.0000000   0.0000000   0.0000000   0.0000000   0.0000000
 NQMom=    0.0000000   0.0000000   0.0000000   0.0000000   0.0000000   0.0000000   0.0000000   0.0000000   0.0000000   0.0000000
 NMagM=    0.0000000   0.0000000   0.0000000   0.0000000   2.7928460   2.7928460   0.0000000   0.0000000   2.7928460   2.7928460
 AtZNuc=   6.0000000   6.0000000   6.0000000   6.0000000   1.0000000   1.0000000   6.0000000   6.0000000   1.0000000   1.0000000

  Atom        61          62          63          64          65          66          67          68          69          70
 IAtWgt=          12          12           1          12          12          12          12          12          12          12
 AtmWgt=  12.0000000  12.0000000   1.0078250  12.0000000  12.0000000  12.0000000  12.0000000  12.0000000  12.0000000  12.0000000
 NucSpn=           0           0           1           0           0           0           0           0           0           0
 AtZEff=   0.0000000   0.0000000   0.0000000   0.0000000   0.0000000   0.0000000   0.0000000   0.0000000   0.0000000   0.0000000
 NQMom=    0.0000000   0.0000000   0.0000000   0.0000000   0.0000000   0.0000000   0.0000000   0.0000000   0.0000000   0.0000000
 NMagM=    0.0000000   0.0000000   2.7928460   0.0000000   0.0000000   0.0000000   0.0000000   0.0000000   0.0000000   0.0000000
 AtZNuc=   6.0000000   6.0000000   1.0000000   6.0000000   6.0000000   6.0000000   6.0000000   6.0000000   6.0000000   6.0000000

  Atom        71          72          73          74          75          76          77          78          79          80
 IAtWgt=          12          12           1           1          12           1           1           1          32          16
 AtmWgt=  12.0000000  12.0000000   1.0078250   1.0078250  12.0000000   1.0078250   1.0078250   1.0078250  31.9720718  15.9949146
 NucSpn=           0           0           1           1           0           1           1           1           0           0
 AtZEff=   0.0000000   0.0000000   0.0000000   0.0000000   0.0000000   0.0000000   0.0000000   0.0000000   0.0000000   0.0000000
 NQMom=    0.0000000   0.0000000   0.0000000   0.0000000   0.0000000   0.0000000   0.0000000   0.0000000   0.0000000   0.0000000
 NMagM=    0.0000000   0.0000000   2.7928460   2.7928460   0.0000000   2.7928460   2.7928460   2.7928460   0.0000000   0.0000000
 AtZNuc=   6.0000000   6.0000000   1.0000000   1.0000000   6.0000000   1.0000000   1.0000000   1.0000000  16.0000000   8.0000000

  Atom        81          82          83          84          85          86          87          88          89          90
 IAtWgt=          16          32          16          16          14          12          12          12          12          12
 AtmWgt=  15.9949146  31.9720718  15.9949146  15.9949146  14.0030740  12.0000000  12.0000000  12.0000000  12.0000000  12.0000000
 NucSpn=           0           0           0           0           2           0           0           0           0           0
 AtZEff=   0.0000000   0.0000000   0.0000000   0.0000000   0.0000000   0.0000000   0.0000000   0.0000000   0.0000000   0.0000000
 NQMom=    0.0000000   0.0000000   0.0000000   0.0000000   2.0440000   0.0000000   0.0000000   0.0000000   0.0000000   0.0000000
 NMagM=    0.0000000   0.0000000   0.0000000   0.0000000   0.4037610   0.0000000   0.0000000   0.0000000   0.0000000   0.0000000
 AtZNuc=   8.0000000  16.0000000   8.0000000   8.0000000   7.0000000   6.0000000   6.0000000   6.0000000   6.0000000   6.0000000

  Atom        91          92          93          94          95          96          97          98          99         100
 IAtWgt=          12          12          12           1          12          12           1           1           1          12
 AtmWgt=  12.0000000  12.0000000  12.0000000   1.0078250  12.0000000  12.0000000   1.0078250   1.0078250   1.0078250  12.0000000
 NucSpn=           0           0           0           1           0           0           1           1           1           0
 AtZEff=   0.0000000   0.0000000   0.0000000   0.0000000   0.0000000   0.0000000   0.0000000   0.0000000   0.0000000   0.0000000
 NQMom=    0.0000000   0.0000000   0.0000000   0.0000000   0.0000000   0.0000000   0.0000000   0.0000000   0.0000000   0.0000000
 NMagM=    0.0000000   0.0000000   0.0000000   2.7928460   0.0000000   0.0000000   2.7928460   2.7928460   2.7928460   0.0000000
 AtZNuc=   6.0000000   6.0000000   6.0000000   1.0000000   6.0000000   6.0000000   1.0000000   1.0000000   1.0000000   6.0000000

  Atom       101         102         103         104         105         106         107         108         109         110
 IAtWgt=          12          12          12           1          12          12           1           1           1          12
 AtmWgt=  12.0000000  12.0000000  12.0000000   1.0078250  12.0000000  12.0000000   1.0078250   1.0078250   1.0078250  12.0000000
 NucSpn=           0           0           0           1           0           0           1           1           1           0
 AtZEff=   0.0000000   0.0000000   0.0000000   0.0000000   0.0000000   0.0000000   0.0000000   0.0000000   0.0000000   0.0000000
 NQMom=    0.0000000   0.0000000   0.0000000   0.0000000   0.0000000   0.0000000   0.0000000   0.0000000   0.0000000   0.0000000
 NMagM=    0.0000000   0.0000000   0.0000000   2.7928460   0.0000000   0.0000000   2.7928460   2.7928460   2.7928460   0.0000000
 AtZNuc=   6.0000000   6.0000000   6.0000000   1.0000000   6.0000000   6.0000000   1.0000000   1.0000000   1.0000000   6.0000000

  Atom       111         112         113         114         115         116         117
 IAtWgt=          19          19          19          12          19          19          19
 AtmWgt=  18.9984032  18.9984032  18.9984032  12.0000000  18.9984032  18.9984032  18.9984032
 NucSpn=           1           1           1           0           1           1           1
 AtZEff=   0.0000000   0.0000000   0.0000000   0.0000000   0.0000000   0.0000000   0.0000000
 NQMom=    0.0000000   0.0000000   0.0000000   0.0000000   0.0000000   0.0000000   0.0000000
 NMagM=    2.6288670   2.6288670   2.6288670   0.0000000   2.6288670   2.6288670   2.6288670
 AtZNuc=   9.0000000   9.0000000   9.0000000   6.0000000   9.0000000   9.0000000   9.0000000
 Leave Link  101 at Tue Jun 11 17:58:36 2024, MaxMem=  8589934592 cpu:               1.8 elap:               0.1
 (Enter /opt/packages/gaussian/g16RevC.01/g16/l202.exe)
 Symmetry turned off by external request.
 Stoichiometry    C60H39F7IN3O5S2
 Framework group  C1[X(C60H39F7IN3O5S2)]
 Deg. of freedom   345
 Full point group                 C1      NOp   1
                          Input orientation:                          
 ---------------------------------------------------------------------
 Center     Atomic      Atomic             Coordinates (Angstroms)
 Number     Number       Type             X           Y           Z
 ---------------------------------------------------------------------
      1          6           0       -0.297174   -3.014164    0.186949
      2          6           0       -1.222929   -1.901527    0.368905
      3          6           0       -1.263938   -1.362808    1.729233
      4          6           0       -0.241812   -1.659322    2.579540
      5          6           0        0.805425   -2.540141    2.155672
      6          7           0        0.675153   -3.272723    1.009258
      7          1           0       -0.223604   -1.197030    3.562406
      8          6           0       -0.489409   -3.971744   -0.946279
      9          6           0       -0.183011   -3.689792   -2.286166
     10          6           0       -0.549435   -4.612437   -3.275127
     11          6           0       -1.481590   -6.100460   -1.613818
     12          6           0       -1.191872   -5.803213   -2.944063
     13          1           0       -0.305736   -4.392021   -4.315700
     14          1           0       -1.465216   -6.511167   -3.727724
     15          1           0       -1.987450   -7.019027   -1.315244
     16          6           0       -1.125841   -5.175608   -0.645638
     17          6           0        0.536069   -2.444974   -2.663045
     18          6           0        1.800627   -2.175926   -2.125222
     19          6           0       -0.013208   -1.561496   -3.602769
     20          6           0        2.512763   -1.049654   -2.534700
     21          1           0        2.232604   -2.867859   -1.398530
     22          6           0        0.692936   -0.427058   -3.993887
     23          1           0       -1.006305   -1.760917   -4.011317
     24          6           0        1.958538   -0.171432   -3.464319
     25          1           0        3.502408   -0.855069   -2.121304
     26          1           0        0.246683    0.272188   -4.701837
     27          1           0        2.507339    0.721927   -3.767599
     28          9           0       -1.453636   -5.413650    0.630500
     29          6           0       -2.322231   -0.385453    2.114679
     30          1           0       -2.091949    0.088673    3.075476
     31          1           0       -2.400029    0.393262    1.339747
     32          1           0       -3.303377   -0.879994    2.167949
     33          6           0        2.906265   -3.757915    2.548944
     34          6           0        2.289772   -1.966904    4.050049
     35          6           0        3.050900   -4.661858    3.768268
     36          1           0        3.868514   -3.263793    2.345709
     37          1           0        2.586791   -4.322802    1.669071
     38          6           0        2.465627   -2.933224    5.215213
     39          1           0        3.247941   -1.466958    3.836170
     40          1           0        1.551479   -1.196581    4.285059
     41          1           0        3.840810   -5.402587    3.587099
     42          1           0        2.098034   -5.198101    3.940523
     43          1           0        2.825230   -2.389853    6.098641
     44          1           0        1.488088   -3.393238    5.456927
     45          7           0        1.920775   -2.719871    2.854409
     46          8           0        3.414047   -3.924403    4.909264
     47         53           0       -3.104542   -2.096489   -0.612534
     48          1           0       -0.687032   -0.829636   -0.200758
     49          6           0       -0.114639    6.087633    2.998892
     50          6           0        0.226241    5.241067    1.971038
     51          6           0       -0.765929    4.460697    1.313001
     52          6           0       -2.112241    4.555813    1.767606
     53          6           0       -2.437500    5.448936    2.826560
     54          6           0       -1.460697    6.203054    3.426527
     55          1           0        0.660966    6.673454    3.494519
     56          1           0        1.269446    5.159072    1.666210
     57          6           0       -0.458015    3.561997    0.237098
     58          6           0       -3.104709    3.736135    1.182684
     59          1           0       -3.476814    5.511849    3.154527
     60          1           0       -1.713771    6.883896    4.240634
     61          6           0       -2.799415    2.832166    0.182175
     62          6           0       -1.450890    2.760239   -0.295709
     63          1           0       -4.131905    3.799180    1.546379
     64          6           0        0.963822    3.495001   -0.240470
     65          6           0        1.750072    2.369153   -0.063401
     66          6           0        1.502728    4.640020   -0.915540
     67          6           0        3.124922    2.355314   -0.465301
     68          6           0        2.871000    4.630894   -1.309555
     69          6           0        0.714490    5.782728   -1.230547
     70          6           0        3.659419    3.485870   -1.055561
     71          6           0        3.423004    5.766625   -1.965633
     72          6           0        1.270607    6.860801   -1.876410
     73          1           0       -0.343646    5.797503   -0.969108
     74          1           0        4.711149    3.484961   -1.346999
     75          6           0        2.640602    6.859885   -2.239861
     76          1           0        4.476184    5.742693   -2.251719
     77          1           0        0.649692    7.725131   -2.116697
     78          1           0        3.066453    7.726921   -2.747123
     79         16           0       -0.929105    1.507429   -1.460128
     80          8           0       -0.080665    2.161122   -2.403174
     81          8           0       -2.052948    0.794817   -1.966271
     82         16           0        0.951761    0.925367    0.623263
     83          8           0        0.292165    1.370923    1.813599
     84          8           0        1.871704   -0.159142    0.768850
     85          7           0       -0.116168    0.473498   -0.513067
     86          6           0       -3.862294    1.985855   -0.276302
     87          6           0       -4.812345    1.283678   -0.551189
     88          6           0        4.003064    1.238820   -0.286320
     89          6           0        4.807654    0.335790   -0.197178
     90          6           0        5.610195   -0.847068   -0.127888
     91          6           0        4.962927   -2.077358    0.067726
     92          6           0        7.009731   -0.829207   -0.283670
     93          6           0        5.697345   -3.260085    0.100697
     94          1           0        3.876944   -2.076683    0.189530
     95          6           0        7.738250   -2.013727   -0.243842
     96          6           0        7.082717   -3.230900   -0.054017
     97          1           0        5.183143   -4.211859    0.245733
     98          1           0        8.821150   -1.985474   -0.365304
     99          1           0        7.658637   -4.156652   -0.029121
    100          6           0       -5.871635    0.383788   -0.894599
    101          6           0       -5.904403   -0.191838   -2.174222
    102          6           0       -6.861447    0.021159    0.040360
    103          6           0       -6.902889   -1.102209   -2.510310
    104          1           0       -5.130526    0.082362   -2.892219
    105          6           0       -7.857649   -0.888181   -0.302019
    106          6           0       -7.880067   -1.450402   -1.578454
    107          1           0       -6.916110   -1.543058   -3.508208
    108          1           0       -8.615415   -1.160625    0.432685
    109          1           0       -8.662306   -2.163312   -1.841586
    110          6           0        7.708817    0.488462   -0.494108
    111          9           0        7.505245    1.327019    0.526737
    112          9           0        9.028168    0.338911   -0.622069
    113          9           0        7.275855    1.112301   -1.595210
    114          6           0       -6.813652    0.602805    1.429438
    115          9           0       -6.859731    1.939442    1.418608
    116          9           0       -7.833335    0.183526    2.180739
    117          9           0       -5.689784    0.263538    2.072940
 ---------------------------------------------------------------------
 Rotational constants (GHZ):           0.0319113           0.0215544           0.0166122
 Leave Link  202 at Tue Jun 11 17:58:36 2024, MaxMem=  8589934592 cpu:               0.1 elap:               0.0
 (Enter /opt/packages/gaussian/g16RevC.01/g16/l301.exe)
 Standard basis: def2TZVPP (5D, 7F)
 Ernie: Thresh=  0.10000D-02 Tol=  0.10000D-05 Strict=F.
  3005 basis functions,  4735 primitive gaussians,  3440 cartesian basis functions
   290 alpha electrons      290 beta electrons
       nuclear repulsion energy     15605.5662771075 Hartrees.
 IExCor=  402 DFT=T Ex+Corr=B3LYP ExCW=0 ScaHFX=  0.200000
 ScaDFX=  0.800000  0.720000  1.000000  0.810000 ScalE2=  1.000000  1.000000
 IRadAn=      5 IRanWt=     -1 IRanGd=            0 ICorTp=0 IEmpDi=141
 NAtoms=  117 NActive=  117 NUniq=  117 SFac= 1.00D+00 NAtFMM=   60 NAOKFM=T Big=T
 Integral buffers will be    131072 words long.
 Raffenetti 2 integral format.
 Two-electron integral symmetry is turned off.
 R6Disp:  Grimme-D3(BJ) Dispersion energy=       -0.3880088360 Hartrees.
 Nuclear repulsion after empirical dispersion term =    15605.1782682715 Hartrees.
 ------------------------------------------------------------------------------
 Polarizable Continuum Model (PCM)
 =================================
 Model                : PCM.
 Atomic radii         : SMD-Coulomb.
 Polarization charges : Total charges.
 Charge compensation  : None.
 Solution method      : On-the-fly selection.
 Cavity type          : VdW (van der Waals Surface) (Alpha=1.000).
 Cavity algorithm     : GePol (No added spheres)
                        Default sphere list used, NSphG=  117.
                        Lebedev-Laikov grids with approx.  5.0 points / Ang**2.
                        Smoothing algorithm: York/Karplus (Gamma=1.0000).
                        Polarization charges: spherical gaussians, with
                                              point-specific exponents (IZeta= 3).
                        Self-potential: point-specific (ISelfS= 7).
                        Self-field    : sphere-specific E.n sum rule (ISelfD= 2).
 Solvent              : PropylEthanoate, Eps=   5.520500 Eps(inf)=   1.916010
 ------------------------------------------------------------------------------
 GePol: Number of generator spheres                  =     117
 GePol: Total number of spheres                      =     117
 GePol: Number of exposed spheres                    =     117 (100.00%)
 GePol: Number of points                             =    8375
 GePol: Average weight of points                     =       0.11
 GePol: Minimum weight of points                     =   0.13D-10
 GePol: Maximum weight of points                     =    0.21501
 GePol: Number of points with low weight             =     566
 GePol: Fraction of low-weight points (<1% of avg)   =       6.76%
 GePol: Cavity surface area                          =    936.200 Ang**2
 GePol: Cavity volume                                =   1072.964 Ang**3
 ------------------------------------------------------------------------------
 Atomic radii for non-electrostatic terms: SMD-CDS.
 ------------------------------------------------------------------------------
 PCM non-electrostatic energy =        -0.0209390708 Hartrees.
 Nuclear repulsion after PCM non-electrostatic terms =    15605.1573292006 Hartrees.
 Leave Link  301 at Tue Jun 11 17:58:36 2024, MaxMem=  8589934592 cpu:               3.9 elap:               0.1
 (Enter /opt/packages/gaussian/g16RevC.01/g16/l302.exe)
 NPDir=0 NMtPBC=     1 NCelOv=     1 NCel=       1 NClECP=     1 NCelD=      1
         NCelK=      1 NCelE2=     1 NClLst=     1 CellRange=     0.0.
 One-electron integrals computed using PRISM.
   1 Symmetry operations used in ECPInt.
 ECPInt:  NShTT=  608856 NPrTT= 1802125 LenC2=  385394 LenP2D=  725502.
 LDataN:  DoStor=T MaxTD1= 7 Len=  274
 Number of processors reduced to  17 by ecpmxn.
 NBasis=  3005 RedAO= T EigKep=  1.70D-06  NBF=  3005
 NBsUse=  3005 1.00D-06 EigRej= -1.00D+00 NBFU=  3005
 Precomputing XC quadrature grid using
 IXCGrd= 4 IRadAn=           5 IRanWt=          -1 IRanGd=           0 AccXCQ= 0.00D+00.
 Defaulting to unpruned grid for atomic number  53.
 Generated NRdTot=       0 NPtTot=           0 NUsed=           0 NTot=          32
 NSgBfM=  2878  2820  2825  2857  2878 MxSgAt=   117 MxSgA2=   117.
 Leave Link  302 at Tue Jun 11 17:59:01 2024, MaxMem=  8589934592 cpu:             757.3 elap:              24.8
 (Enter /opt/packages/gaussian/g16RevC.01/g16/l303.exe)
 DipDrv:  MaxL=1.
 Leave Link  303 at Tue Jun 11 17:59:03 2024, MaxMem=  8589934592 cpu:              30.2 elap:               1.2
 (Enter /opt/packages/gaussian/g16RevC.01/g16/l401.exe)
 ExpMin= 7.49D-02 ExpMax= 6.07D+04 ExpMxC= 2.07D+03 IAcc=3 IRadAn=         5 AccDes= 0.00D+00
 Harris functional with IExCor=  402 and IRadAn=       5 diagonalized for initial guess.
 HarFok:  IExCor=  402 AccDes= 0.00D+00 IRadAn=         5 IDoV= 1 UseB2=F ITyADJ=14
 ICtDFT=  3500011 ScaDFX=  1.000000  1.000000  1.000000  1.000000
 Defaulting to unpruned grid for atomic number  53.
 FoFCou: FMM=F IPFlag=           0 FMFlag=      100000 FMFlg1=        2001
         NFxFlg=           0 DoJE=T BraDBF=F KetDBF=T FulRan=T
         wScrn=  0.000000 ICntrl=       500 IOpCl=  0 I1Cent=   200000004 NGrid=           0
         NMat0=    1 NMatS0=      1 NMatT0=    0 NMatD0=    1 NMtDS0=    0 NMtDT0=    0
 Symmetry not used in FoFCou.
 Harris En= -4644.99733945077    
 JPrj=0 DoOrth=F DoCkMO=F.
 Leave Link  401 at Tue Jun 11 17:59:30 2024, MaxMem=  8589934592 cpu:             883.1 elap:              27.8
 (Enter /opt/packages/gaussian/g16RevC.01/g16/l502.exe)
 Two-electron integral symmetry not used.
 Closed shell SCF:
 Using DIIS extrapolation, IDIIS=  1040.
 NGot=  8589934592 LenX=  8566133628 LenY=  8554296588
 Requested convergence on RMS density matrix=1.00D-08 within 128 cycles.
 Requested convergence on MAX density matrix=1.00D-06.
 Requested convergence on             energy=1.00D-06.
 No special actions if energy rises.
 Fock matrices will be formed incrementally for  20 cycles.

 Cycle   1  Pass 1  IDiag  1:
 FoFJK:  IHMeth= 1 ICntrl=       0 DoSepK=F KAlg= 0 I1Cent=           0 FoldK=F
 IRaf= 590000000 NMat=       1 IRICut=       1 DoRegI=T DoRafI=F ISym2E= 0 IDoP0=0 IntGTp=1.
 FoFCou: FMM=T IPFlag=           0 FMFlag=      100000 FMFlg1=        2001
         NFxFlg=           0 DoJE=F BraDBF=F KetDBF=F FulRan=T
         wScrn=  0.000000 ICntrl=         0 IOpCl=  0 I1Cent=           0 NGrid=           0
         NMat0=    1 NMatS0=      1 NMatT0=    0 NMatD0=    1 NMtDS0=    0 NMtDT0=    0
 Symmetry not used in FoFCou.
 FMM levels:  10  Number of levels for PrismC:   9
 Defaulting to unpruned grid for atomic number  53.
 Defaulting to unpruned grid for atomic number  53.
 Defaulting to unpruned grid for atomic number  53.
 Defaulting to unpruned grid for atomic number  53.
 Defaulting to unpruned grid for atomic number  53.
 Defaulting to unpruned grid for atomic number  53.
 Defaulting to unpruned grid for atomic number  53.
 Defaulting to unpruned grid for atomic number  53.
 Defaulting to unpruned grid for atomic number  53.
 Defaulting to unpruned grid for atomic number  53.
 Defaulting to unpruned grid for atomic number  53.
 Defaulting to unpruned grid for atomic number  53.
 Defaulting to unpruned grid for atomic number  53.
 Defaulting to unpruned grid for atomic number  53.
 Defaulting to unpruned grid for atomic number  53.
 Defaulting to unpruned grid for atomic number  53.
 Defaulting to unpruned grid for atomic number  53.
 Defaulting to unpruned grid for atomic number  53.
 Defaulting to unpruned grid for atomic number  53.
 Defaulting to unpruned grid for atomic number  53.
 Defaulting to unpruned grid for atomic number  53.
 Defaulting to unpruned grid for atomic number  53.
 Defaulting to unpruned grid for atomic number  53.
 Defaulting to unpruned grid for atomic number  53.
 Defaulting to unpruned grid for atomic number  53.
 Defaulting to unpruned grid for atomic number  53.
 Defaulting to unpruned grid for atomic number  53.
 Defaulting to unpruned grid for atomic number  53.
 Defaulting to unpruned grid for atomic number  53.
 Defaulting to unpruned grid for atomic number  53.
 Defaulting to unpruned grid for atomic number  53.
 Defaulting to unpruned grid for atomic number  53.
 Inv3:  Mode=1 IEnd=   210421875.
 Iteration    1 A*A^-1 deviation from unit magnitude is 3.33D-15 for   3184.
 Iteration    1 A*A^-1 deviation from orthogonality  is 2.55D-15 for   6432   5885.
 Iteration    1 A^-1*A deviation from unit magnitude is 3.44D-15 for   3582.
 Iteration    1 A^-1*A deviation from orthogonality  is 2.89D-15 for   6727   2675.
 E= -4643.09615599277    
 DIIS: error= 1.19D-02 at cycle   1 NSaved=   1.
 NSaved= 1 IEnMin= 1 EnMin= -4643.09615599277     IErMin= 1 ErrMin= 1.19D-02
 ErrMax= 1.19D-02  0.00D+00 EMaxC= 1.00D-01 BMatC= 2.39D+00 BMatP= 2.39D+00
 IDIUse=3 WtCom= 8.81D-01 WtEn= 1.19D-01
 Coeff-Com:  0.100D+01
 Coeff-En:   0.100D+01
 Coeff:      0.100D+01
 Gap=     0.272 Goal=   None    Shift=    0.000
 GapD=    0.272 DampG=1.000 DampE=0.500 DampFc=0.5000 IDamp=-1.
 Damping current iteration by 5.00D-01
 RMSDP=2.51D-03 MaxDP=1.24D+00              OVMax= 2.35D-01

 Cycle   2  Pass 1  IDiag  1:
 RMSU=  1.24D-03    CP:  1.05D+00
 E= -4643.62123860965     Delta-E=       -0.525082616881 Rises=F Damp=T
 DIIS: error= 4.47D-03 at cycle   2 NSaved=   2.
 NSaved= 2 IEnMin= 2 EnMin= -4643.62123860965     IErMin= 2 ErrMin= 4.47D-03
 ErrMax= 4.47D-03  0.00D+00 EMaxC= 1.00D-01 BMatC= 3.71D-01 BMatP= 2.39D+00
 IDIUse=3 WtCom= 9.55D-01 WtEn= 4.47D-02
 Coeff-Com:  0.194D+00 0.806D+00
 Coeff-En:   0.332D+00 0.668D+00
 Coeff:      0.200D+00 0.800D+00
 Gap=     0.133 Goal=   None    Shift=    0.000
 RMSDP=1.03D-03 MaxDP=5.32D-01 DE=-5.25D-01 OVMax= 2.53D-01

 Cycle   3  Pass 1  IDiag  1:
 RMSU=  8.02D-04    CP:  1.00D+00  4.98D-01
 E= -4644.61259489261     Delta-E=       -0.991356282953 Rises=F Damp=F
 DIIS: error= 5.34D-03 at cycle   3 NSaved=   3.
 NSaved= 3 IEnMin= 3 EnMin= -4644.61259489261     IErMin= 2 ErrMin= 4.47D-03
 ErrMax= 5.34D-03  0.00D+00 EMaxC= 1.00D-01 BMatC= 4.40D-01 BMatP= 3.71D-01
 IDIUse=3 WtCom= 1.20D-01 WtEn= 8.80D-01
 Coeff-Com:  0.277D-01 0.519D+00 0.453D+00
 Coeff-En:   0.000D+00 0.000D+00 0.100D+01
 Coeff:      0.333D-02 0.625D-01 0.934D+00
 Gap=     0.276 Goal=   None    Shift=    0.000
 RMSDP=1.73D-03 MaxDP=1.11D+00 DE=-9.91D-01 OVMax= 2.53D-01

 Cycle   4  Pass 1  IDiag  1:
 RMSU=  1.06D-03    CP:  1.02D+00  1.08D+00 -4.56D-01
 E= -4642.95437109205     Delta-E=        1.658223800554 Rises=F Damp=F
 DIIS: error= 1.54D-02 at cycle   4 NSaved=   4.
 NSaved= 4 IEnMin= 3 EnMin= -4644.61259489261     IErMin= 2 ErrMin= 4.47D-03
 ErrMax= 1.54D-02  0.00D+00 EMaxC= 1.00D-01 BMatC= 2.56D+00 BMatP= 3.71D-01
 IDIUse=2 WtCom= 0.00D+00 WtEn= 1.00D+00
 Coeff-En:   0.000D+00 0.000D+00 0.781D+00 0.219D+00
 Coeff:      0.000D+00 0.000D+00 0.781D+00 0.219D+00
 Gap=     0.133 Goal=   None    Shift=    0.000
 RMSDP=1.11D-03 MaxDP=8.85D-01 DE= 1.66D+00 OVMax= 1.44D-01

 Cycle   5  Pass 1  IDiag  1:
 RMSU=  3.32D-04    CP:  9.95D-01  6.42D-01  2.54D-01  3.31D-01
 E= -4644.86782125499     Delta-E=       -1.913450162938 Rises=F Damp=F
 DIIS: error= 3.48D-03 at cycle   5 NSaved=   5.
 NSaved= 5 IEnMin= 5 EnMin= -4644.86782125499     IErMin= 5 ErrMin= 3.48D-03
 ErrMax= 3.48D-03  0.00D+00 EMaxC= 1.00D-01 BMatC= 1.57D-01 BMatP= 3.71D-01
 IDIUse=3 WtCom= 9.65D-01 WtEn= 3.48D-02
 Coeff-Com:  0.209D-02 0.102D-01 0.316D+00-0.533D-01 0.725D+00
 Coeff-En:   0.000D+00 0.000D+00 0.305D+00 0.000D+00 0.695D+00
 Coeff:      0.201D-02 0.983D-02 0.315D+00-0.515D-01 0.724D+00
 Gap=     0.150 Goal=   None    Shift=    0.000
 RMSDP=2.82D-04 MaxDP=1.29D-01 DE=-1.91D+00 OVMax= 5.72D-02

 Cycle   6  Pass 1  IDiag  1:
 RMSU=  7.53D-05    CP:  9.98D-01  5.81D-01  5.10D-01  1.89D-01  8.29D-01
 E= -4644.99444806204     Delta-E=       -0.126626807049 Rises=F Damp=F
 DIIS: error= 6.76D-04 at cycle   6 NSaved=   6.
 NSaved= 6 IEnMin= 6 EnMin= -4644.99444806204     IErMin= 6 ErrMin= 6.76D-04
 ErrMax= 6.76D-04  0.00D+00 EMaxC= 1.00D-01 BMatC= 5.36D-03 BMatP= 1.57D-01
 IDIUse=3 WtCom= 9.93D-01 WtEn= 6.76D-03
 Coeff-Com: -0.271D-02 0.854D-02 0.164D+00-0.611D-01 0.490D+00 0.401D+00
 Coeff-En:   0.000D+00 0.000D+00 0.000D+00 0.000D+00 0.000D+00 0.100D+01
 Coeff:     -0.270D-02 0.849D-02 0.163D+00-0.607D-01 0.487D+00 0.405D+00
 Gap=     0.133 Goal=   None    Shift=    0.000
 RMSDP=4.80D-05 MaxDP=1.86D-02 DE=-1.27D-01 OVMax= 1.42D-02

 Cycle   7  Pass 1  IDiag  1:
 RMSU=  2.96D-05    CP:  9.97D-01  5.75D-01  5.20D-01  1.73D-01  8.56D-01
                    CP:  5.97D-01
 E= -4644.99957905000     Delta-E=       -0.005130987956 Rises=F Damp=F
 DIIS: error= 1.26D-04 at cycle   7 NSaved=   7.
 NSaved= 7 IEnMin= 7 EnMin= -4644.99957905000     IErMin= 7 ErrMin= 1.26D-04
 ErrMax= 1.26D-04  0.00D+00 EMaxC= 1.00D-01 BMatC= 2.16D-04 BMatP= 5.36D-03
 IDIUse=3 WtCom= 9.99D-01 WtEn= 1.26D-03
 Coeff-Com: -0.143D-02 0.572D-02 0.660D-01-0.291D-01 0.201D+00 0.219D+00
 Coeff-Com:  0.539D+00
 Coeff-En:   0.000D+00 0.000D+00 0.000D+00 0.000D+00 0.000D+00 0.000D+00
 Coeff-En:   0.100D+01
 Coeff:     -0.143D-02 0.571D-02 0.659D-01-0.291D-01 0.201D+00 0.218D+00
 Coeff:      0.539D+00
 Gap=     0.133 Goal=   None    Shift=    0.000
 RMSDP=1.12D-05 MaxDP=2.87D-03 DE=-5.13D-03 OVMax= 2.85D-03

 Cycle   8  Pass 1  IDiag  1:
 RMSU=  9.32D-06    CP:  9.97D-01  5.74D-01  5.20D-01  1.73D-01  8.53D-01
                    CP:  6.10D-01  7.97D-01
 E= -4644.99974271378     Delta-E=       -0.000163663783 Rises=F Damp=F
 DIIS: error= 4.71D-05 at cycle   8 NSaved=   8.
 NSaved= 8 IEnMin= 8 EnMin= -4644.99974271378     IErMin= 8 ErrMin= 4.71D-05
 ErrMax= 4.71D-05  0.00D+00 EMaxC= 1.00D-01 BMatC= 3.27D-05 BMatP= 2.16D-04
 IDIUse=1 WtCom= 1.00D+00 WtEn= 0.00D+00
 Coeff-Com: -0.183D-03 0.689D-03 0.123D-01-0.608D-02 0.336D-01 0.584D-01
 Coeff-Com:  0.313D+00 0.588D+00
 Coeff:     -0.183D-03 0.689D-03 0.123D-01-0.608D-02 0.336D-01 0.584D-01
 Coeff:      0.313D+00 0.588D+00
 Gap=     0.133 Goal=   None    Shift=    0.000
 RMSDP=4.30D-06 MaxDP=1.18D-03 DE=-1.64D-04 OVMax= 1.24D-03

 Cycle   9  Pass 1  IDiag  1:
 RMSU=  2.80D-06    CP:  9.97D-01  5.74D-01  5.23D-01  1.72D-01  8.53D-01
                    CP:  6.09D-01  8.40D-01  8.14D-01
 E= -4644.99977080635     Delta-E=       -0.000028092567 Rises=F Damp=F
 DIIS: error= 1.71D-05 at cycle   9 NSaved=   9.
 NSaved= 9 IEnMin= 9 EnMin= -4644.99977080635     IErMin= 9 ErrMin= 1.71D-05
 ErrMax= 1.71D-05  0.00D+00 EMaxC= 1.00D-01 BMatC= 3.85D-06 BMatP= 3.27D-05
 IDIUse=1 WtCom= 1.00D+00 WtEn= 0.00D+00
 Coeff-Com:  0.603D-04-0.429D-03 0.630D-03-0.289D-03-0.148D-02 0.114D-01
 Coeff-Com:  0.122D+00 0.340D+00 0.528D+00
 Coeff:      0.603D-04-0.429D-03 0.630D-03-0.289D-03-0.148D-02 0.114D-01
 Coeff:      0.122D+00 0.340D+00 0.528D+00
 Gap=     0.133 Goal=   None    Shift=    0.000
 RMSDP=1.18D-06 MaxDP=2.88D-04 DE=-2.81D-05 OVMax= 3.04D-04

 Cycle  10  Pass 1  IDiag  1:
 RMSU=  9.40D-07    CP:  9.97D-01  5.74D-01  5.23D-01  1.72D-01  8.52D-01
                    CP:  6.14D-01  8.41D-01  8.05D-01  7.96D-01
 E= -4644.99977423428     Delta-E=       -0.000003427938 Rises=F Damp=F
 DIIS: error= 3.42D-06 at cycle  10 NSaved=  10.
 NSaved=10 IEnMin=10 EnMin= -4644.99977423428     IErMin=10 ErrMin= 3.42D-06
 ErrMax= 3.42D-06  0.00D+00 EMaxC= 1.00D-01 BMatC= 2.56D-07 BMatP= 3.85D-06
 IDIUse=1 WtCom= 1.00D+00 WtEn= 0.00D+00
 Coeff-Com:  0.266D-04-0.213D-03-0.467D-03 0.186D-03-0.272D-02 0.228D-02
 Coeff-Com:  0.418D-01 0.136D+00 0.282D+00 0.541D+00
 Coeff:      0.266D-04-0.213D-03-0.467D-03 0.186D-03-0.272D-02 0.228D-02
 Coeff:      0.418D-01 0.136D+00 0.282D+00 0.541D+00
 Gap=     0.133 Goal=   None    Shift=    0.000
 RMSDP=4.66D-07 MaxDP=1.49D-04 DE=-3.43D-06 OVMax= 9.98D-05

 Cycle  11  Pass 1  IDiag  1:
 RMSU=  3.36D-07    CP:  9.97D-01  5.74D-01  5.23D-01  1.72D-01  8.52D-01
                    CP:  6.15D-01  8.46D-01  8.12D-01  7.99D-01  7.81D-01
 E= -4644.99977443521     Delta-E=       -0.000000200927 Rises=F Damp=F
 DIIS: error= 1.29D-06 at cycle  11 NSaved=  11.
 NSaved=11 IEnMin=11 EnMin= -4644.99977443521     IErMin=11 ErrMin= 1.29D-06
 ErrMax= 1.29D-06  0.00D+00 EMaxC= 1.00D-01 BMatC= 3.37D-08 BMatP= 2.56D-07
 IDIUse=1 WtCom= 1.00D+00 WtEn= 0.00D+00
 Coeff-Com:  0.294D-05-0.419D-04-0.450D-03 0.150D-03-0.167D-02 0.405D-04
 Coeff-Com:  0.118D-01 0.446D-01 0.110D+00 0.308D+00 0.527D+00
 Coeff:      0.294D-05-0.419D-04-0.450D-03 0.150D-03-0.167D-02 0.405D-04
 Coeff:      0.118D-01 0.446D-01 0.110D+00 0.308D+00 0.527D+00
 Gap=     0.133 Goal=   None    Shift=    0.000
 RMSDP=1.27D-07 MaxDP=4.89D-05 DE=-2.01D-07 OVMax= 3.09D-05

 Cycle  12  Pass 1  IDiag  1:
 RMSU=  1.07D-07    CP:  9.97D-01  5.74D-01  5.23D-01  1.72D-01  8.52D-01
                    CP:  6.15D-01  8.47D-01  8.16D-01  7.99D-01  8.19D-01
                    CP:  9.38D-01
 E= -4644.99977446244     Delta-E=       -0.000000027225 Rises=F Damp=F
 DIIS: error= 8.90D-07 at cycle  12 NSaved=  12.
 NSaved=12 IEnMin=12 EnMin= -4644.99977446244     IErMin=12 ErrMin= 8.90D-07
 ErrMax= 8.90D-07  0.00D+00 EMaxC= 1.00D-01 BMatC= 6.09D-09 BMatP= 3.37D-08
 IDIUse=1 WtCom= 1.00D+00 WtEn= 0.00D+00
 Coeff-Com: -0.591D-05 0.149D-04-0.211D-03 0.626D-04-0.562D-03-0.361D-03
 Coeff-Com:  0.546D-04 0.385D-02 0.183D-01 0.923D-01 0.318D+00 0.569D+00
 Coeff:     -0.591D-05 0.149D-04-0.211D-03 0.626D-04-0.562D-03-0.361D-03
 Coeff:      0.546D-04 0.385D-02 0.183D-01 0.923D-01 0.318D+00 0.569D+00
 Gap=     0.133 Goal=   None    Shift=    0.000
 RMSDP=6.70D-08 MaxDP=1.59D-05 DE=-2.72D-08 OVMax= 1.89D-05

 Cycle  13  Pass 1  IDiag  1:
 RMSU=  5.25D-08    CP:  9.97D-01  5.74D-01  5.23D-01  1.72D-01  8.52D-01
                    CP:  6.15D-01  8.46D-01  8.16D-01  8.02D-01  8.28D-01
                    CP:  9.43D-01  7.12D-01
 E= -4644.99977446794     Delta-E=       -0.000000005508 Rises=F Damp=F
 DIIS: error= 6.39D-07 at cycle  13 NSaved=  13.
 NSaved=13 IEnMin=13 EnMin= -4644.99977446794     IErMin=13 ErrMin= 6.39D-07
 ErrMax= 6.39D-07  0.00D+00 EMaxC= 1.00D-01 BMatC= 1.32D-09 BMatP= 6.09D-09
 IDIUse=1 WtCom= 1.00D+00 WtEn= 0.00D+00
 Coeff-Com: -0.528D-05 0.153D-04-0.662D-04 0.170D-04-0.947D-04-0.216D-03
 Coeff-Com: -0.167D-02-0.419D-02-0.486D-02 0.135D-01 0.121D+00 0.377D+00
 Coeff-Com:  0.499D+00
 Coeff:     -0.528D-05 0.153D-04-0.662D-04 0.170D-04-0.947D-04-0.216D-03
 Coeff:     -0.167D-02-0.419D-02-0.486D-02 0.135D-01 0.121D+00 0.377D+00
 Coeff:      0.499D+00
 Gap=     0.133 Goal=   None    Shift=    0.000
 RMSDP=2.62D-08 MaxDP=6.98D-06 DE=-5.51D-09 OVMax= 9.68D-06

 Cycle  14  Pass 1  IDiag  1:
 RMSU=  1.88D-08    CP:  9.97D-01  5.74D-01  5.23D-01  1.72D-01  8.52D-01
                    CP:  6.16D-01  8.47D-01  8.16D-01  8.05D-01  8.32D-01
                    CP:  9.57D-01  7.81D-01  8.31D-01
 E= -4644.99977446856     Delta-E=       -0.000000000620 Rises=F Damp=F
 DIIS: error= 1.88D-07 at cycle  14 NSaved=  14.
 NSaved=14 IEnMin=14 EnMin= -4644.99977446856     IErMin=14 ErrMin= 1.88D-07
 ErrMax= 1.88D-07  0.00D+00 EMaxC= 1.00D-01 BMatC= 1.75D-10 BMatP= 1.32D-09
 IDIUse=1 WtCom= 1.00D+00 WtEn= 0.00D+00
 Coeff-Com: -0.259D-05 0.810D-05-0.928D-05 0.428D-06 0.296D-04-0.828D-04
 Coeff-Com: -0.108D-02-0.340D-02-0.650D-02-0.702D-02 0.204D-01 0.144D+00
 Coeff-Com:  0.322D+00 0.531D+00
 Coeff:     -0.259D-05 0.810D-05-0.928D-05 0.428D-06 0.296D-04-0.828D-04
 Coeff:     -0.108D-02-0.340D-02-0.650D-02-0.702D-02 0.204D-01 0.144D+00
 Coeff:      0.322D+00 0.531D+00
 Gap=     0.133 Goal=   None    Shift=    0.000
 RMSDP=1.18D-08 MaxDP=3.35D-06 DE=-6.20D-10 OVMax= 2.53D-06

 Cycle  15  Pass 1  IDiag  1:
 RMSU=  7.53D-09    CP:  9.97D-01  5.74D-01  5.23D-01  1.72D-01  8.52D-01
                    CP:  6.16D-01  8.47D-01  8.16D-01  8.05D-01  8.32D-01
                    CP:  9.68D-01  8.07D-01  8.46D-01  7.98D-01
 E= -4644.99977446932     Delta-E=       -0.000000000753 Rises=F Damp=F
 DIIS: error= 3.37D-08 at cycle  15 NSaved=  15.
 NSaved=15 IEnMin=15 EnMin= -4644.99977446932     IErMin=15 ErrMin= 3.37D-08
 ErrMax= 3.37D-08  0.00D+00 EMaxC= 1.00D-01 BMatC= 1.62D-11 BMatP= 1.75D-10
 IDIUse=1 WtCom= 1.00D+00 WtEn= 0.00D+00
 Coeff-Com: -0.612D-06 0.200D-05 0.365D-05-0.192D-05 0.263D-04-0.168D-04
 Coeff-Com: -0.329D-03-0.115D-02-0.268D-02-0.499D-02-0.648D-02 0.256D-01
 Coeff-Com:  0.109D+00 0.292D+00 0.588D+00
 Coeff:     -0.612D-06 0.200D-05 0.365D-05-0.192D-05 0.263D-04-0.168D-04
 Coeff:     -0.329D-03-0.115D-02-0.268D-02-0.499D-02-0.648D-02 0.256D-01
 Coeff:      0.109D+00 0.292D+00 0.588D+00
 Gap=     0.133 Goal=   None    Shift=    0.000
 RMSDP=3.63D-09 MaxDP=6.64D-07 DE=-7.53D-10 OVMax= 1.30D-06

 Error on total polarization charges =  0.07834
 SCF Done:  E(RB3LYP) =  -4644.99977447     A.U. after   15 cycles
            NFock= 15  Conv=0.36D-08     -V/T= 2.0457
 KE= 4.441801696026D+03 PE=-4.203837680928D+04 EE= 1.734641800959D+04
 SMD-CDS (non-electrostatic) energy       (kcal/mol) =     -13.14
 (included in total energy above)
 Leave Link  502 at Tue Jun 11 19:32:05 2024, MaxMem=  8589934592 cpu:          176317.2 elap:            5554.6
 (Enter /opt/packages/gaussian/g16RevC.01/g16/l601.exe)
 Copying SCF densities to generalized density rwf, IOpCl= 0 IROHF=0.
 Hyperfine terms turned off by default for NAtoms > 100.

 **********************************************************************

            Population analysis using the SCF Density.

 **********************************************************************

 Alpha  occ. eigenvalues --  -89.04550 -89.04137 -24.72048 -24.71971 -24.71657
 Alpha  occ. eigenvalues --  -24.71639 -24.71577 -24.71524 -24.70244 -19.13919
 Alpha  occ. eigenvalues --  -19.10869 -19.10510 -19.10484 -19.10315 -14.38001
 Alpha  occ. eigenvalues --  -14.32784 -14.31597 -10.42732 -10.42647 -10.28062
 Alpha  occ. eigenvalues --  -10.26557 -10.25855 -10.22555 -10.22440 -10.22079
 Alpha  occ. eigenvalues --  -10.22065 -10.21994 -10.21946 -10.21946 -10.21890
 Alpha  occ. eigenvalues --  -10.21655 -10.21575 -10.21501 -10.21330 -10.21231
 Alpha  occ. eigenvalues --  -10.21104 -10.20994 -10.20834 -10.19988 -10.19981
 Alpha  occ. eigenvalues --  -10.19831 -10.19773 -10.19739 -10.19697 -10.19578
 Alpha  occ. eigenvalues --  -10.19403 -10.19218 -10.19190 -10.19154 -10.19127
 Alpha  occ. eigenvalues --  -10.19030 -10.19002 -10.18899 -10.18809 -10.18644
 Alpha  occ. eigenvalues --  -10.18488 -10.18466 -10.18359 -10.18356 -10.18355
 Alpha  occ. eigenvalues --  -10.18301 -10.18296 -10.18276 -10.18265 -10.18259
 Alpha  occ. eigenvalues --  -10.18217 -10.18215 -10.18081 -10.17887 -10.17849
 Alpha  occ. eigenvalues --  -10.17747 -10.16813 -10.16772 -10.16680 -10.16540
 Alpha  occ. eigenvalues --  -10.16474 -10.16415  -8.09145  -8.08710  -6.83092
 Alpha  occ. eigenvalues --   -6.05478  -6.05366  -6.05329  -6.05048  -6.04929
 Alpha  occ. eigenvalues --   -6.04901  -4.85625  -4.84335  -4.84295  -1.90420
 Alpha  occ. eigenvalues --   -1.90019  -1.89983  -1.88881  -1.88880  -1.32753
 Alpha  occ. eigenvalues --   -1.32642  -1.24133  -1.23726  -1.23623  -1.23358
 Alpha  occ. eigenvalues --   -1.23238  -1.12644  -1.11228  -1.05933  -1.00945
 Alpha  occ. eigenvalues --   -1.00420  -1.00383  -0.95046  -0.91066  -0.89702
 Alpha  occ. eigenvalues --   -0.88769  -0.88585  -0.88399  -0.87902  -0.84721
 Alpha  occ. eigenvalues --   -0.84683  -0.84439  -0.84073  -0.82194  -0.80668
 Alpha  occ. eigenvalues --   -0.79887  -0.79653  -0.79005  -0.78897  -0.78656
 Alpha  occ. eigenvalues --   -0.77908  -0.77594  -0.76937  -0.76848  -0.75728
 Alpha  occ. eigenvalues --   -0.75245  -0.74910  -0.73760  -0.73476  -0.72854
 Alpha  occ. eigenvalues --   -0.72392  -0.72255  -0.71318  -0.70880  -0.70702
 Alpha  occ. eigenvalues --   -0.68311  -0.68234  -0.67190  -0.66803  -0.65475
 Alpha  occ. eigenvalues --   -0.65191  -0.64861  -0.63891  -0.63736  -0.63379
 Alpha  occ. eigenvalues --   -0.63134  -0.63047  -0.62973  -0.62549  -0.62089
 Alpha  occ. eigenvalues --   -0.60512  -0.60380  -0.60286  -0.59979  -0.59874
 Alpha  occ. eigenvalues --   -0.59443  -0.58707  -0.58351  -0.58230  -0.57964
 Alpha  occ. eigenvalues --   -0.57838  -0.57560  -0.55470  -0.55425  -0.54949
 Alpha  occ. eigenvalues --   -0.54397  -0.53474  -0.53100  -0.53051  -0.52292
 Alpha  occ. eigenvalues --   -0.51973  -0.51600  -0.51322  -0.50337  -0.50110
 Alpha  occ. eigenvalues --   -0.49834  -0.49678  -0.49053  -0.48874  -0.48683
 Alpha  occ. eigenvalues --   -0.48565  -0.48437  -0.48286  -0.48219  -0.48141
 Alpha  occ. eigenvalues --   -0.47936  -0.47542  -0.47524  -0.47430  -0.47356
 Alpha  occ. eigenvalues --   -0.47099  -0.46960  -0.46440  -0.46180  -0.45921
 Alpha  occ. eigenvalues --   -0.45642  -0.45403  -0.45209  -0.45115  -0.44971
 Alpha  occ. eigenvalues --   -0.44778  -0.44680  -0.44606  -0.44534  -0.44466
 Alpha  occ. eigenvalues --   -0.44394  -0.43868  -0.43705  -0.43475  -0.43347
 Alpha  occ. eigenvalues --   -0.43110  -0.43005  -0.42932  -0.42435  -0.42115
 Alpha  occ. eigenvalues --   -0.42011  -0.41925  -0.41612  -0.41536  -0.41334
 Alpha  occ. eigenvalues --   -0.41124  -0.41032  -0.40905  -0.40596  -0.40402
 Alpha  occ. eigenvalues --   -0.40249  -0.39620  -0.39587  -0.39452  -0.39360
 Alpha  occ. eigenvalues --   -0.38753  -0.38043  -0.37941  -0.37689  -0.37358
 Alpha  occ. eigenvalues --   -0.37118  -0.36945  -0.36827  -0.36767  -0.36653
 Alpha  occ. eigenvalues --   -0.36552  -0.36438  -0.36412  -0.36249  -0.35915
 Alpha  occ. eigenvalues --   -0.35848  -0.35401  -0.35207  -0.35161  -0.34471
 Alpha  occ. eigenvalues --   -0.34046  -0.33899  -0.33569  -0.33395  -0.33203
 Alpha  occ. eigenvalues --   -0.32957  -0.32570  -0.32023  -0.31483  -0.31264
 Alpha  occ. eigenvalues --   -0.30987  -0.30583  -0.29464  -0.29160  -0.28792
 Alpha  occ. eigenvalues --   -0.28663  -0.28194  -0.27851  -0.27798  -0.27724
 Alpha  occ. eigenvalues --   -0.27561  -0.27474  -0.26983  -0.26608  -0.26190
 Alpha  occ. eigenvalues --   -0.26069  -0.25302  -0.24759  -0.24637  -0.24090
 Alpha  occ. eigenvalues --   -0.24001  -0.23483  -0.22345  -0.22260  -0.21850
 Alpha virt. eigenvalues --   -0.08557  -0.07545  -0.07412  -0.06268  -0.05546
 Alpha virt. eigenvalues --   -0.04431  -0.03560  -0.03438  -0.02752  -0.02494
 Alpha virt. eigenvalues --   -0.02285  -0.01842  -0.01593  -0.00327  -0.00021
 Alpha virt. eigenvalues --    0.00759   0.00818   0.03411   0.03753   0.04025
 Alpha virt. eigenvalues --    0.04689   0.04862   0.05086   0.05219   0.05382
 Alpha virt. eigenvalues --    0.05586   0.05699   0.06082   0.06113   0.06227
 Alpha virt. eigenvalues --    0.06502   0.06807   0.06971   0.07221   0.07356
 Alpha virt. eigenvalues --    0.07562   0.07630   0.07839   0.08159   0.08405
 Alpha virt. eigenvalues --    0.08756   0.08943   0.09041   0.09278   0.09344
 Alpha virt. eigenvalues --    0.09548   0.09695   0.09872   0.09948   0.10134
 Alpha virt. eigenvalues --    0.10206   0.10476   0.10589   0.10746   0.10881
 Alpha virt. eigenvalues --    0.11217   0.11322   0.11380   0.11384   0.11618
 Alpha virt. eigenvalues --    0.11969   0.12042   0.12212   0.12444   0.12624
 Alpha virt. eigenvalues --    0.12702   0.12752   0.12896   0.13088   0.13157
 Alpha virt. eigenvalues --    0.13405   0.13581   0.13882   0.14178   0.14286
 Alpha virt. eigenvalues --    0.14352   0.14506   0.14574   0.14662   0.14731
 Alpha virt. eigenvalues --    0.14900   0.15095   0.15320   0.15453   0.15560
 Alpha virt. eigenvalues --    0.15953   0.16138   0.16435   0.16580   0.16781
 Alpha virt. eigenvalues --    0.16850   0.17093   0.17253   0.17533   0.17770
 Alpha virt. eigenvalues --    0.17909   0.18240   0.18294   0.18664   0.18892
 Alpha virt. eigenvalues --    0.19012   0.19040   0.19280   0.19316   0.19577
 Alpha virt. eigenvalues --    0.19787   0.19913   0.19993   0.20165   0.20293
 Alpha virt. eigenvalues --    0.20435   0.20541   0.20548   0.20695   0.20848
 Alpha virt. eigenvalues --    0.21032   0.21220   0.21363   0.21392   0.21439
 Alpha virt. eigenvalues --    0.21507   0.21596   0.21880   0.22039   0.22264
 Alpha virt. eigenvalues --    0.22470   0.22481   0.22644   0.22801   0.22920
 Alpha virt. eigenvalues --    0.23229   0.23296   0.23582   0.23727   0.23735
 Alpha virt. eigenvalues --    0.23960   0.24055   0.24155   0.24323   0.24416
 Alpha virt. eigenvalues --    0.24533   0.24702   0.24856   0.25078   0.25232
 Alpha virt. eigenvalues --    0.25320   0.25415   0.25678   0.25759   0.25979
 Alpha virt. eigenvalues --    0.26094   0.26205   0.26240   0.26583   0.26778
 Alpha virt. eigenvalues --    0.26920   0.27047   0.27178   0.27284   0.27378
 Alpha virt. eigenvalues --    0.27615   0.27834   0.27959   0.28044   0.28351
 Alpha virt. eigenvalues --    0.28483   0.28589   0.28771   0.28936   0.28953
 Alpha virt. eigenvalues --    0.29067   0.29232   0.29380   0.29454   0.29527
 Alpha virt. eigenvalues --    0.29712   0.30019   0.30044   0.30229   0.30442
 Alpha virt. eigenvalues --    0.30496   0.30733   0.31009   0.31140   0.31202
 Alpha virt. eigenvalues --    0.31437   0.31550   0.31705   0.31885   0.32006
 Alpha virt. eigenvalues --    0.32136   0.32207   0.32345   0.32693   0.32944
 Alpha virt. eigenvalues --    0.33009   0.33100   0.33235   0.33428   0.33471
 Alpha virt. eigenvalues --    0.33499   0.33626   0.33758   0.33934   0.34102
 Alpha virt. eigenvalues --    0.34207   0.34452   0.34561   0.34848   0.34929
 Alpha virt. eigenvalues --    0.34987   0.35274   0.35343   0.35409   0.35616
 Alpha virt. eigenvalues --    0.35928   0.36148   0.36334   0.36348   0.36496
 Alpha virt. eigenvalues --    0.36573   0.36959   0.37145   0.37200   0.37300
 Alpha virt. eigenvalues --    0.37395   0.37441   0.37535   0.37852   0.37973
 Alpha virt. eigenvalues --    0.38126   0.38297   0.38420   0.38437   0.38609
 Alpha virt. eigenvalues --    0.38768   0.38803   0.39086   0.39224   0.39392
 Alpha virt. eigenvalues --    0.39592   0.39773   0.39960   0.40038   0.40158
 Alpha virt. eigenvalues --    0.40311   0.40423   0.40542   0.40859   0.40953
 Alpha virt. eigenvalues --    0.41101   0.41208   0.41457   0.41484   0.41589
 Alpha virt. eigenvalues --    0.41667   0.41864   0.41919   0.42114   0.42267
 Alpha virt. eigenvalues --    0.42450   0.42500   0.42647   0.42792   0.42904
 Alpha virt. eigenvalues --    0.43011   0.43193   0.43328   0.43416   0.43604
 Alpha virt. eigenvalues --    0.43777   0.43919   0.44019   0.44133   0.44267
 Alpha virt. eigenvalues --    0.44354   0.44581   0.44602   0.44688   0.44964
 Alpha virt. eigenvalues --    0.45028   0.45145   0.45329   0.45396   0.45577
 Alpha virt. eigenvalues --    0.45699   0.45944   0.46007   0.46140   0.46283
 Alpha virt. eigenvalues --    0.46458   0.46590   0.46674   0.46939   0.47082
 Alpha virt. eigenvalues --    0.47166   0.47262   0.47483   0.47559   0.47893
 Alpha virt. eigenvalues --    0.47960   0.48066   0.48186   0.48436   0.48527
 Alpha virt. eigenvalues --    0.48771   0.48902   0.49084   0.49257   0.49347
 Alpha virt. eigenvalues --    0.49475   0.49705   0.49844   0.50135   0.50230
 Alpha virt. eigenvalues --    0.50380   0.50450   0.50646   0.50824   0.51031
 Alpha virt. eigenvalues --    0.51134   0.51187   0.51426   0.51485   0.51635
 Alpha virt. eigenvalues --    0.51893   0.52040   0.52181   0.52504   0.52546
 Alpha virt. eigenvalues --    0.52741   0.53034   0.53143   0.53287   0.53511
 Alpha virt. eigenvalues --    0.53848   0.54032   0.54100   0.54293   0.54366
 Alpha virt. eigenvalues --    0.54442   0.54967   0.55206   0.55298   0.55474
 Alpha virt. eigenvalues --    0.55637   0.55764   0.55925   0.56274   0.56355
 Alpha virt. eigenvalues --    0.56500   0.56861   0.57028   0.57081   0.57227
 Alpha virt. eigenvalues --    0.57570   0.57694   0.58001   0.58157   0.58323
 Alpha virt. eigenvalues --    0.58422   0.58539   0.58862   0.58976   0.59415
 Alpha virt. eigenvalues --    0.59496   0.59800   0.59968   0.60329   0.60477
 Alpha virt. eigenvalues --    0.60579   0.60891   0.60991   0.61071   0.61132
 Alpha virt. eigenvalues --    0.61500   0.61965   0.62041   0.62337   0.62473
 Alpha virt. eigenvalues --    0.62551   0.62778   0.62902   0.62936   0.63304
 Alpha virt. eigenvalues --    0.63444   0.63565   0.63844   0.63947   0.64128
 Alpha virt. eigenvalues --    0.64302   0.64418   0.64633   0.64893   0.65036
 Alpha virt. eigenvalues --    0.65396   0.65578   0.65675   0.65817   0.65952
 Alpha virt. eigenvalues --    0.66059   0.66185   0.66441   0.66609   0.66657
 Alpha virt. eigenvalues --    0.66738   0.66929   0.67049   0.67230   0.67276
 Alpha virt. eigenvalues --    0.67411   0.67594   0.67650   0.67810   0.67919
 Alpha virt. eigenvalues --    0.68147   0.68415   0.68499   0.68617   0.68666
 Alpha virt. eigenvalues --    0.68745   0.68925   0.69081   0.69325   0.69377
 Alpha virt. eigenvalues --    0.69598   0.69623   0.69876   0.70007   0.70066
 Alpha virt. eigenvalues --    0.70278   0.70436   0.70637   0.71005   0.71033
 Alpha virt. eigenvalues --    0.71272   0.71435   0.71596   0.71663   0.71703
 Alpha virt. eigenvalues --    0.71867   0.72029   0.72151   0.72335   0.72448
 Alpha virt. eigenvalues --    0.72665   0.72874   0.72904   0.73406   0.73583
 Alpha virt. eigenvalues --    0.73636   0.73789   0.74022   0.74213   0.74457
 Alpha virt. eigenvalues --    0.74551   0.74674   0.74791   0.74981   0.75238
 Alpha virt. eigenvalues --    0.75358   0.75714   0.75789   0.75960   0.76119
 Alpha virt. eigenvalues --    0.76373   0.76507   0.76749   0.76803   0.77235
 Alpha virt. eigenvalues --    0.77432   0.77540   0.77762   0.77963   0.78138
 Alpha virt. eigenvalues --    0.78312   0.78562   0.78636   0.78806   0.78958
 Alpha virt. eigenvalues --    0.79194   0.79309   0.79502   0.79663   0.79734
 Alpha virt. eigenvalues --    0.79910   0.80166   0.80197   0.80270   0.80468
 Alpha virt. eigenvalues --    0.80699   0.80971   0.81039   0.81458   0.81578
 Alpha virt. eigenvalues --    0.81672   0.81872   0.82120   0.82416   0.82648
 Alpha virt. eigenvalues --    0.82828   0.82893   0.82941   0.83178   0.83502
 Alpha virt. eigenvalues --    0.83633   0.83682   0.83938   0.84081   0.84291
 Alpha virt. eigenvalues --    0.84382   0.84586   0.84651   0.85035   0.85122
 Alpha virt. eigenvalues --    0.85245   0.85545   0.85623   0.85920   0.86123
 Alpha virt. eigenvalues --    0.86309   0.86483   0.86624   0.86792   0.87116
 Alpha virt. eigenvalues --    0.87274   0.87382   0.87464   0.87703   0.87771
 Alpha virt. eigenvalues --    0.88152   0.88243   0.88339   0.88391   0.88828
 Alpha virt. eigenvalues --    0.88929   0.89230   0.89371   0.89515   0.89667
 Alpha virt. eigenvalues --    0.89970   0.90129   0.90240   0.90361   0.90568
 Alpha virt. eigenvalues --    0.90709   0.90746   0.90919   0.91048   0.91061
 Alpha virt. eigenvalues --    0.91315   0.91441   0.91807   0.91853   0.92072
 Alpha virt. eigenvalues --    0.92281   0.92642   0.92704   0.92813   0.92884
 Alpha virt. eigenvalues --    0.93147   0.93225   0.93437   0.93925   0.94001
 Alpha virt. eigenvalues --    0.94345   0.94514   0.94742   0.94998   0.95136
 Alpha virt. eigenvalues --    0.95371   0.95605   0.95658   0.95878   0.96000
 Alpha virt. eigenvalues --    0.96076   0.96148   0.96265   0.96368   0.96634
 Alpha virt. eigenvalues --    0.96795   0.97089   0.97125   0.97545   0.97687
 Alpha virt. eigenvalues --    0.97739   0.97879   0.98239   0.98478   0.98552
 Alpha virt. eigenvalues --    0.98719   0.98882   0.99035   0.99331   0.99552
 Alpha virt. eigenvalues --    0.99625   0.99725   0.99910   1.00147   1.00201
 Alpha virt. eigenvalues --    1.00477   1.00650   1.00806   1.00972   1.01127
 Alpha virt. eigenvalues --    1.01409   1.01610   1.01831   1.01972   1.02115
 Alpha virt. eigenvalues --    1.02556   1.02784   1.02967   1.03022   1.03358
 Alpha virt. eigenvalues --    1.03459   1.03898   1.03982   1.04125   1.04304
 Alpha virt. eigenvalues --    1.04713   1.04897   1.05025   1.05272   1.05337
 Alpha virt. eigenvalues --    1.05629   1.05674   1.06119   1.06151   1.06360
 Alpha virt. eigenvalues --    1.06530   1.06685   1.06853   1.07091   1.07225
 Alpha virt. eigenvalues --    1.07589   1.07730   1.07884   1.08003   1.08191
 Alpha virt. eigenvalues --    1.08393   1.08453   1.08714   1.08747   1.08965
 Alpha virt. eigenvalues --    1.09353   1.09469   1.09744   1.09993   1.10155
 Alpha virt. eigenvalues --    1.10259   1.10661   1.10858   1.11038   1.11245
 Alpha virt. eigenvalues --    1.11415   1.11709   1.11806   1.11985   1.12295
 Alpha virt. eigenvalues --    1.12552   1.12665   1.12900   1.13045   1.13105
 Alpha virt. eigenvalues --    1.13541   1.13618   1.13910   1.14087   1.14096
 Alpha virt. eigenvalues --    1.14354   1.14379   1.14598   1.14667   1.14769
 Alpha virt. eigenvalues --    1.15023   1.15386   1.15524   1.15775   1.15902
 Alpha virt. eigenvalues --    1.16058   1.16240   1.16465   1.16688   1.16901
 Alpha virt. eigenvalues --    1.17215   1.17471   1.17582   1.17676   1.17960
 Alpha virt. eigenvalues --    1.18175   1.18369   1.18567   1.18824   1.18930
 Alpha virt. eigenvalues --    1.19258   1.19429   1.19531   1.19786   1.20044
 Alpha virt. eigenvalues --    1.20097   1.20444   1.20667   1.20791   1.21159
 Alpha virt. eigenvalues --    1.21404   1.21733   1.21838   1.21871   1.22050
 Alpha virt. eigenvalues --    1.22319   1.22531   1.22713   1.22762   1.23048
 Alpha virt. eigenvalues --    1.23182   1.23404   1.23588   1.23694   1.23891
 Alpha virt. eigenvalues --    1.24103   1.24377   1.24502   1.24845   1.24965
 Alpha virt. eigenvalues --    1.25176   1.25503   1.25768   1.25899   1.26035
 Alpha virt. eigenvalues --    1.26291   1.26512   1.26729   1.27010   1.27377
 Alpha virt. eigenvalues --    1.27471   1.27788   1.27901   1.28124   1.28176
 Alpha virt. eigenvalues --    1.28374   1.28463   1.29018   1.29062   1.29120
 Alpha virt. eigenvalues --    1.29422   1.29511   1.29770   1.29941   1.30028
 Alpha virt. eigenvalues --    1.30422   1.30454   1.30649   1.30878   1.31075
 Alpha virt. eigenvalues --    1.31338   1.31502   1.31592   1.31673   1.31872
 Alpha virt. eigenvalues --    1.32028   1.32236   1.32287   1.32668   1.32834
 Alpha virt. eigenvalues --    1.32904   1.33145   1.33277   1.33560   1.33678
 Alpha virt. eigenvalues --    1.33812   1.34046   1.34246   1.34346   1.34515
 Alpha virt. eigenvalues --    1.34540   1.34770   1.34781   1.34986   1.35195
 Alpha virt. eigenvalues --    1.35372   1.35504   1.35798   1.35900   1.36066
 Alpha virt. eigenvalues --    1.36153   1.36545   1.36774   1.36891   1.36964
 Alpha virt. eigenvalues --    1.37317   1.37370   1.37693   1.37878   1.38024
 Alpha virt. eigenvalues --    1.38293   1.38370   1.38720   1.38928   1.39076
 Alpha virt. eigenvalues --    1.39440   1.39566   1.39753   1.39998   1.40122
 Alpha virt. eigenvalues --    1.40307   1.40707   1.40749   1.40904   1.41082
 Alpha virt. eigenvalues --    1.41173   1.41488   1.41697   1.41900   1.42073
 Alpha virt. eigenvalues --    1.42194   1.42544   1.42590   1.43105   1.43270
 Alpha virt. eigenvalues --    1.43619   1.43793   1.43951   1.44224   1.44344
 Alpha virt. eigenvalues --    1.44463   1.44684   1.44856   1.44934   1.45171
 Alpha virt. eigenvalues --    1.45304   1.45613   1.46159   1.46379   1.46637
 Alpha virt. eigenvalues --    1.46699   1.46801   1.47260   1.47290   1.47588
 Alpha virt. eigenvalues --    1.47821   1.48022   1.48165   1.48315   1.48708
 Alpha virt. eigenvalues --    1.48956   1.49314   1.49422   1.49571   1.49706
 Alpha virt. eigenvalues --    1.50040   1.50260   1.50854   1.50985   1.51051
 Alpha virt. eigenvalues --    1.51179   1.51314   1.51528   1.51745   1.51997
 Alpha virt. eigenvalues --    1.52122   1.52297   1.52764   1.52901   1.52907
 Alpha virt. eigenvalues --    1.53224   1.53408   1.53616   1.53975   1.54245
 Alpha virt. eigenvalues --    1.54493   1.54626   1.54689   1.55042   1.55152
 Alpha virt. eigenvalues --    1.55191   1.55674   1.55774   1.56090   1.56314
 Alpha virt. eigenvalues --    1.56477   1.56774   1.56886   1.57318   1.57520
 Alpha virt. eigenvalues --    1.57816   1.58041   1.58283   1.58647   1.58755
 Alpha virt. eigenvalues --    1.58890   1.59106   1.59197   1.59270   1.59468
 Alpha virt. eigenvalues --    1.59797   1.59972   1.60256   1.60569   1.60917
 Alpha virt. eigenvalues --    1.61123   1.61351   1.61534   1.61844   1.62082
 Alpha virt. eigenvalues --    1.62482   1.62710   1.62949   1.63066   1.63337
 Alpha virt. eigenvalues --    1.63528   1.63681   1.63813   1.64157   1.64257
 Alpha virt. eigenvalues --    1.64412   1.64709   1.65031   1.65136   1.65329
 Alpha virt. eigenvalues --    1.65653   1.65889   1.65922   1.66022   1.66460
 Alpha virt. eigenvalues --    1.66599   1.66686   1.67008   1.67241   1.67259
 Alpha virt. eigenvalues --    1.67738   1.67839   1.67981   1.68010   1.68328
 Alpha virt. eigenvalues --    1.68444   1.68620   1.68906   1.68968   1.69374
 Alpha virt. eigenvalues --    1.69552   1.69704   1.70055   1.70467   1.70574
 Alpha virt. eigenvalues --    1.70761   1.70949   1.71408   1.71628   1.71707
 Alpha virt. eigenvalues --    1.71936   1.72070   1.72245   1.72525   1.72797
 Alpha virt. eigenvalues --    1.72981   1.73179   1.73595   1.73674   1.73909
 Alpha virt. eigenvalues --    1.74133   1.74418   1.74682   1.74847   1.75129
 Alpha virt. eigenvalues --    1.75270   1.75422   1.75538   1.75669   1.76152
 Alpha virt. eigenvalues --    1.76482   1.76736   1.76932   1.77070   1.77389
 Alpha virt. eigenvalues --    1.77581   1.77748   1.78269   1.78503   1.78757
 Alpha virt. eigenvalues --    1.78829   1.79140   1.79382   1.79667   1.79818
 Alpha virt. eigenvalues --    1.80351   1.80584   1.80723   1.81117   1.81148
 Alpha virt. eigenvalues --    1.81582   1.81661   1.81847   1.82365   1.82680
 Alpha virt. eigenvalues --    1.82761   1.82905   1.83133   1.83311   1.83587
 Alpha virt. eigenvalues --    1.83844   1.84116   1.84357   1.84662   1.84875
 Alpha virt. eigenvalues --    1.85192   1.85457   1.85580   1.85880   1.86264
 Alpha virt. eigenvalues --    1.86803   1.86942   1.87065   1.87307   1.87583
 Alpha virt. eigenvalues --    1.87865   1.88012   1.88308   1.88552   1.88703
 Alpha virt. eigenvalues --    1.89120   1.89398   1.89765   1.90158   1.90327
 Alpha virt. eigenvalues --    1.90689   1.91074   1.91375   1.91627   1.91827
 Alpha virt. eigenvalues --    1.92072   1.92259   1.92581   1.92902   1.93001
 Alpha virt. eigenvalues --    1.93045   1.93596   1.93721   1.93999   1.94464
 Alpha virt. eigenvalues --    1.94779   1.95087   1.95503   1.96013   1.96191
 Alpha virt. eigenvalues --    1.96591   1.96733   1.96959   1.97520   1.97700
 Alpha virt. eigenvalues --    1.97942   1.98137   1.98528   1.98878   1.99009
 Alpha virt. eigenvalues --    1.99270   1.99511   1.99800   1.99933   2.00139
 Alpha virt. eigenvalues --    2.00380   2.00642   2.00960   2.01635   2.01688
 Alpha virt. eigenvalues --    2.01924   2.02025   2.02234   2.02682   2.03079
 Alpha virt. eigenvalues --    2.03450   2.03677   2.03836   2.04092   2.04375
 Alpha virt. eigenvalues --    2.04660   2.04708   2.04766   2.05082   2.05533
 Alpha virt. eigenvalues --    2.05596   2.06049   2.06215   2.06405   2.06710
 Alpha virt. eigenvalues --    2.06913   2.07390   2.07450   2.07926   2.08157
 Alpha virt. eigenvalues --    2.08195   2.08503   2.08822   2.09178   2.09269
 Alpha virt. eigenvalues --    2.09387   2.09834   2.09917   2.10013   2.10256
 Alpha virt. eigenvalues --    2.10393   2.10897   2.11124   2.11409   2.11520
 Alpha virt. eigenvalues --    2.11787   2.11886   2.12099   2.12194   2.12481
 Alpha virt. eigenvalues --    2.12727   2.13008   2.13201   2.13210   2.13572
 Alpha virt. eigenvalues --    2.13941   2.14282   2.14600   2.14902   2.15096
 Alpha virt. eigenvalues --    2.15426   2.15589   2.15912   2.16599   2.16935
 Alpha virt. eigenvalues --    2.17602   2.17674   2.17786   2.18254   2.18540
 Alpha virt. eigenvalues --    2.18786   2.18913   2.19486   2.19984   2.20314
 Alpha virt. eigenvalues --    2.20612   2.21341   2.21458   2.21785   2.21874
 Alpha virt. eigenvalues --    2.22480   2.22706   2.23014   2.23256   2.23473
 Alpha virt. eigenvalues --    2.23638   2.24323   2.24601   2.24802   2.25033
 Alpha virt. eigenvalues --    2.25302   2.25550   2.25958   2.26008   2.26318
 Alpha virt. eigenvalues --    2.26669   2.27142   2.27559   2.27828   2.28164
 Alpha virt. eigenvalues --    2.28542   2.28711   2.29100   2.29385   2.29600
 Alpha virt. eigenvalues --    2.30008   2.30249   2.30637   2.30935   2.31093
 Alpha virt. eigenvalues --    2.31311   2.31680   2.32318   2.32608   2.32689
 Alpha virt. eigenvalues --    2.33222   2.33435   2.33458   2.33642   2.33994
 Alpha virt. eigenvalues --    2.34194   2.34710   2.34866   2.34959   2.35432
 Alpha virt. eigenvalues --    2.35680   2.35921   2.36214   2.36280   2.36628
 Alpha virt. eigenvalues --    2.36697   2.37009   2.37508   2.37617   2.37955
 Alpha virt. eigenvalues --    2.38158   2.38436   2.38738   2.38916   2.39250
 Alpha virt. eigenvalues --    2.39549   2.39594   2.39762   2.39929   2.40375
 Alpha virt. eigenvalues --    2.40525   2.40891   2.41193   2.41310   2.41467
 Alpha virt. eigenvalues --    2.41638   2.41915   2.42252   2.42600   2.43053
 Alpha virt. eigenvalues --    2.43368   2.43558   2.43780   2.43932   2.44066
 Alpha virt. eigenvalues --    2.44455   2.45005   2.45406   2.45848   2.46480
 Alpha virt. eigenvalues --    2.46959   2.47489   2.47909   2.48341   2.48384
 Alpha virt. eigenvalues --    2.49003   2.49412   2.49696   2.50226   2.50624
 Alpha virt. eigenvalues --    2.50865   2.51226   2.51426   2.52119   2.52291
 Alpha virt. eigenvalues --    2.52713   2.52785   2.53087   2.53387   2.53618
 Alpha virt. eigenvalues --    2.54189   2.54942   2.55209   2.55427   2.55633
 Alpha virt. eigenvalues --    2.55892   2.56139   2.56670   2.56815   2.57109
 Alpha virt. eigenvalues --    2.57326   2.57759   2.58057   2.58150   2.58402
 Alpha virt. eigenvalues --    2.58551   2.59406   2.59548   2.59775   2.60251
 Alpha virt. eigenvalues --    2.60356   2.60498   2.60847   2.60911   2.61400
 Alpha virt. eigenvalues --    2.61578   2.61912   2.62148   2.62265   2.62676
 Alpha virt. eigenvalues --    2.63116   2.63296   2.63792   2.64191   2.64353
 Alpha virt. eigenvalues --    2.64890   2.65196   2.65510   2.65585   2.65698
 Alpha virt. eigenvalues --    2.66126   2.66294   2.66827   2.67108   2.67195
 Alpha virt. eigenvalues --    2.67500   2.67688   2.67881   2.68224   2.68479
 Alpha virt. eigenvalues --    2.69119   2.69577   2.69674   2.69948   2.70273
 Alpha virt. eigenvalues --    2.70356   2.70597   2.71003   2.71236   2.71448
 Alpha virt. eigenvalues --    2.71548   2.71942   2.72081   2.72315   2.72348
 Alpha virt. eigenvalues --    2.72466   2.72716   2.72834   2.73226   2.73346
 Alpha virt. eigenvalues --    2.73467   2.73679   2.73836   2.74076   2.74189
 Alpha virt. eigenvalues --    2.74685   2.74976   2.75070   2.75236   2.75580
 Alpha virt. eigenvalues --    2.75905   2.76010   2.76389   2.76519   2.76647
 Alpha virt. eigenvalues --    2.77477   2.77507   2.77608   2.77922   2.78181
[...]
 Alpha virt. eigenvalues --    4.53163   4.54014   4.54497   4.54665   4.55028
 Alpha virt. eigenvalues --    4.55381   4.55773   4.56136   4.56341   4.56438
 Alpha virt. eigenvalues --    4.57016   4.57260   4.57615   4.57799   4.58483
 Alpha virt. eigenvalues --    4.59105   4.59684   4.60185   4.60753   4.61018
 Alpha virt. eigenvalues --    4.61566   4.62574   4.62858   4.63575   4.63706
 Alpha virt. eigenvalues --    4.64089   4.64432   4.64623   4.64948   4.64992
 Alpha virt. eigenvalues --    4.65143   4.65273   4.65379   4.65718   4.66060
 Alpha virt. eigenvalues --    4.66333   4.66467   4.66536   4.66998   4.67552
 Alpha virt. eigenvalues --    4.67806   4.68166   4.68458   4.68797   4.69111
 Alpha virt. eigenvalues --    4.69482   4.69686   4.70059   4.70423   4.70606
 Alpha virt. eigenvalues --    4.70778   4.71283   4.71467   4.71945   4.72391
 Alpha virt. eigenvalues --    4.72588   4.72677   4.73330   4.73681   4.74001
 Alpha virt. eigenvalues --    4.74784   4.75077   4.75405   4.75526   4.75787
 Alpha virt. eigenvalues --    4.75914   4.76031   4.76253   4.76456   4.77052
 Alpha virt. eigenvalues --    4.77171   4.77634   4.77871   4.78028   4.78216
 Alpha virt. eigenvalues --    4.79152   4.79308   4.79647   4.79737   4.80083
 Alpha virt. eigenvalues --    4.80564   4.80810   4.81104   4.81261   4.81399
 Alpha virt. eigenvalues --    4.82414   4.83422   4.83585   4.83785   4.84052
 Alpha virt. eigenvalues --    4.84381   4.84467   4.84923   4.85342   4.86386
 Alpha virt. eigenvalues --    4.86514   4.86865   4.87792   4.87925   4.88333
 Alpha virt. eigenvalues --    4.89163   4.89362   4.89891   4.90146   4.90422
 Alpha virt. eigenvalues --    4.90547   4.91200   4.91279   4.91451   4.91893
 Alpha virt. eigenvalues --    4.92427   4.92674   4.92976   4.93615   4.93946
 Alpha virt. eigenvalues --    4.94320   4.94349   4.94832   4.95883   4.95968
 Alpha virt. eigenvalues --    4.97233   4.98560   4.99292   4.99493   4.99536
 Alpha virt. eigenvalues --    5.00365   5.00584   5.01174   5.01385   5.01972
 Alpha virt. eigenvalues --    5.02300   5.02977   5.03533   5.03716   5.04179
 Alpha virt. eigenvalues --    5.04905   5.05159   5.05401   5.05783   5.06109
 Alpha virt. eigenvalues --    5.06857   5.07332   5.07684   5.08191   5.09252
 Alpha virt. eigenvalues --    5.09736   5.09814   5.10419   5.10496   5.10699
 Alpha virt. eigenvalues --    5.11013   5.11432   5.11680   5.12345   5.12655
 Alpha virt. eigenvalues --    5.12981   5.13180   5.14082   5.14707   5.14916
 Alpha virt. eigenvalues --    5.15195   5.15298   5.15666   5.16228   5.16548
 Alpha virt. eigenvalues --    5.17223   5.17909   5.18176   5.18496   5.18965
 Alpha virt. eigenvalues --    5.19172   5.19462   5.19642   5.20154   5.20280
 Alpha virt. eigenvalues --    5.20527   5.20683   5.21137   5.21218   5.21484
 Alpha virt. eigenvalues --    5.21658   5.21810   5.22077   5.22462   5.22741
 Alpha virt. eigenvalues --    5.23284   5.23497   5.23678   5.23794   5.23844
 Alpha virt. eigenvalues --    5.24209   5.24598   5.24754   5.25484   5.25514
 Alpha virt. eigenvalues --    5.26191   5.26588   5.26970   5.27103   5.27286
 Alpha virt. eigenvalues --    5.27674   5.28272   5.28557   5.29096   5.29164
 Alpha virt. eigenvalues --    5.29981   5.30135   5.30281   5.30304   5.30779
 Alpha virt. eigenvalues --    5.31225   5.31464   5.31827   5.31990   5.32354
 Alpha virt. eigenvalues --    5.33125   5.33311   5.33678   5.34054   5.34191
 Alpha virt. eigenvalues --    5.34784   5.35031   5.36052   5.36378   5.36838
 Alpha virt. eigenvalues --    5.37352   5.37449   5.37490   5.37957   5.38314
 Alpha virt. eigenvalues --    5.38666   5.38857   5.39105   5.39379   5.39570
 Alpha virt. eigenvalues --    5.40323   5.41204   5.41504   5.41832   5.42190
 Alpha virt. eigenvalues --    5.42866   5.43140   5.43874   5.44098   5.44655
 Alpha virt. eigenvalues --    5.44810   5.45449   5.45881   5.46100   5.46600
 Alpha virt. eigenvalues --    5.47126   5.47661   5.48071   5.48660   5.48965
 Alpha virt. eigenvalues --    5.49245   5.49798   5.50757   5.51110   5.51451
 Alpha virt. eigenvalues --    5.51787   5.52178   5.52737   5.52826   5.53500
 Alpha virt. eigenvalues --    5.53656   5.54757   5.55286   5.55783   5.56465
 Alpha virt. eigenvalues --    5.56899   5.57901   5.58064   5.58461   5.58656
 Alpha virt. eigenvalues --    5.59284   5.59349   5.59639   5.59988   5.60301
 Alpha virt. eigenvalues --    5.61059   5.61307   5.62244   5.62770   5.62994
 Alpha virt. eigenvalues --    5.63155   5.63629   5.63997   5.64717   5.64903
 Alpha virt. eigenvalues --    5.65185   5.65886   5.66379   5.67168   5.67397
 Alpha virt. eigenvalues --    5.68904   5.69397   5.69642   5.70103   5.71234
 Alpha virt. eigenvalues --    5.71460   5.71751   5.72090   5.73471   5.73772
 Alpha virt. eigenvalues --    5.74679   5.76288   5.76305   5.76830   5.77340
 Alpha virt. eigenvalues --    5.77743   5.78297   5.79055   5.80100   5.81248
 Alpha virt. eigenvalues --    5.81821   5.82206   5.83102   5.83165   5.84230
 Alpha virt. eigenvalues --    5.85406   5.86625   5.87756   5.88661   5.89085
 Alpha virt. eigenvalues --    5.90579   5.91601   5.95009   5.95740   5.95867
 Alpha virt. eigenvalues --    5.96782   5.98731   6.00929   6.01294   6.01385
 Alpha virt. eigenvalues --    6.02457   6.04616   6.05201   6.05993   6.06357
 Alpha virt. eigenvalues --    6.06804   6.07317   6.11120   6.11362   6.11852
 Alpha virt. eigenvalues --    6.12527   6.14658   6.15032   6.15765   6.22762
 Alpha virt. eigenvalues --    6.23147   6.23443   6.24795   6.31010   6.34935
 Alpha virt. eigenvalues --    6.39981   6.41786   6.44049   6.46105   6.46925
 Alpha virt. eigenvalues --    6.47810   6.52823   6.55269   6.56208   6.56392
 Alpha virt. eigenvalues --    6.57815   6.59497   6.59924   6.68432   6.69126
 Alpha virt. eigenvalues --    6.70897   6.76339   6.76576   6.77433   6.78417
 Alpha virt. eigenvalues --    6.78612   6.78737   6.78802   6.82237   6.82334
 Alpha virt. eigenvalues --    6.82675   6.82801   6.83570   6.83640   6.84234
 Alpha virt. eigenvalues --    6.84411   6.84696   6.84803   6.85410   6.85499
 Alpha virt. eigenvalues --    6.85513   6.85717   6.86128   6.86168   6.86738
 Alpha virt. eigenvalues --    6.86780   6.87381   6.87868   6.89261   6.92235
 Alpha virt. eigenvalues --    6.92571   6.95785   6.96913   6.96957   6.97094
 Alpha virt. eigenvalues --    6.97363   6.97940   7.00642   7.00897   7.01180
 Alpha virt. eigenvalues --    7.02074   7.04679   7.04870   7.04934   7.07010
 Alpha virt. eigenvalues --    7.08661   7.08773   7.10241   7.10524   7.12937
 Alpha virt. eigenvalues --    7.12974   7.14377   7.19853   7.22840   7.24887
 Alpha virt. eigenvalues --    7.33123   7.36067   7.36068   7.36250   7.36355
 Alpha virt. eigenvalues --    7.39867   7.43425   7.43550   7.45714   7.48452
 Alpha virt. eigenvalues --    7.48716   7.54374   7.56318   7.58775   7.58849
 Alpha virt. eigenvalues --    7.62512   7.62543   7.64066   7.86189   7.88271
 Alpha virt. eigenvalues --    7.94018   8.00831   8.26502   8.27112   8.29904
 Alpha virt. eigenvalues --    8.30004   8.30631   8.30769   8.36207   8.45064
 Alpha virt. eigenvalues --    8.45082   8.48868   8.48924   8.57144   8.57381
 Alpha virt. eigenvalues --    8.58386   8.67304   8.67334   8.75079   8.75100
 Alpha virt. eigenvalues --    8.75883   8.78426   8.78447   8.88600   8.89710
 Alpha virt. eigenvalues --    8.94562   8.95364   8.98148   8.99672   9.00200
 Alpha virt. eigenvalues --    9.01577   9.03695   9.07280   9.09866   9.12269
 Alpha virt. eigenvalues --    9.16000   9.16609   9.52659   9.58954   9.75593
 Alpha virt. eigenvalues --    9.77980  10.16804  10.21073  22.56709  22.57541
 Alpha virt. eigenvalues --   22.66992  22.67596  22.70105  22.83344  22.87161
 Alpha virt. eigenvalues --   22.87952  22.88545  22.90926  22.95732  22.99368
 Alpha virt. eigenvalues --   23.01471  23.02670  23.05924  23.06263  23.07458
 Alpha virt. eigenvalues --   23.07606  23.08609  23.09544  23.10299  23.13078
 Alpha virt. eigenvalues --   23.14919  23.17002  23.17231  23.18595  23.19343
 Alpha virt. eigenvalues --   23.20437  23.20621  23.20949  23.21342  23.22909
 Alpha virt. eigenvalues --   23.24191  23.24491  23.25065  23.25806  23.26624
 Alpha virt. eigenvalues --   23.30305  23.30741  23.32370  23.33131  23.35886
 Alpha virt. eigenvalues --   23.36659  23.40445  23.41253  23.42732  23.43379
 Alpha virt. eigenvalues --   23.50621  23.54705  23.55193  23.62036  23.71559
 Alpha virt. eigenvalues --   23.81267  23.82252  23.91187  24.12445  24.13481
 Alpha virt. eigenvalues --   24.15880  24.23662  24.30019  24.37493  24.41546
 Alpha virt. eigenvalues --   32.71335  32.76864  33.25900  34.64803  34.79925
 Alpha virt. eigenvalues --   34.98716  43.08778  44.00079  44.14130  44.20945
 Alpha virt. eigenvalues --   44.26127  44.27662  57.12081  57.12446  57.23008
 Alpha virt. eigenvalues --   57.23236  57.40681  57.46949  57.48143 117.90585
          Condensed to atoms (all electrons):
 Mulliken charges:
               1
     1  C    0.072130
     2  C    0.254344
     3  C   -0.132734
     4  C   -0.104849
     5  C    0.197367
     6  N   -0.304795
     7  H    0.124603
     8  C   -0.192123
     9  C    0.218905
    10  C   -0.212720
    11  C   -0.242892
    12  C   -0.105218
    13  H    0.154814
    14  H    0.156825
    15  H    0.146464
    16  C    0.323255
    17  C   -0.003801
    18  C   -0.156572
    19  C   -0.165162
    20  C   -0.170756
    21  H    0.140759
    22  C   -0.151099
    23  H    0.138836
    24  C   -0.110289
    25  H    0.154886
    26  H    0.128094
    27  H    0.139191
    28  F   -0.224735
    29  C   -0.239737
    30  H    0.090553
    31  H    0.096770
    32  H    0.124607
    33  C   -0.053384
    34  C   -0.047976
    35  C   -0.002620
    36  H    0.100672
    37  H    0.111280
    38  C    0.004179
    39  H    0.107859
    40  H    0.100634
    41  H    0.100637
    42  H    0.083353
    43  H    0.102787
    44  H    0.076933
    45  N    0.008389
    46  O   -0.335545
    47  I   -0.033466
    48  H    0.168005
    49  C   -0.136303
    50  C   -0.195552
    51  C   -0.028263
    52  C   -0.060744
    53  C   -0.136608
    54  C   -0.138025
    55  H    0.155602
    56  H    0.162309
    57  C    0.065247
    58  C   -0.072816
    59  H    0.148159
    60  H    0.154658
    61  C   -0.141632
    62  C   -0.039188
    63  H    0.147832
    64  C    0.099072
    65  C   -0.074105
    66  C   -0.059201
    67  C   -0.123366
    68  C   -0.039648
    69  C   -0.190119
    70  C   -0.101761
    71  C   -0.135285
    72  C   -0.134891
    73  H    0.162355
    74  H    0.149498
    75  C   -0.135048
    76  H    0.148370
    77  H    0.155863
    78  H    0.155012
    79  S    0.860883
    80  O   -0.490861
    81  O   -0.501467
    82  S    0.936563
    83  O   -0.506650
    84  O   -0.552799
    85  N   -0.400166
    86  C    0.087293
    87  C    0.234386
    88  C    0.074759
    89  C    0.207335
    90  C   -0.038032
    91  C   -0.258565
    92  C   -0.170555
    93  C   -0.131338
    94  H    0.209094
    95  C   -0.083464
    96  C   -0.151174
    97  H    0.164204
    98  H    0.162062
    99  H    0.160853
   100  C   -0.108485
   101  C   -0.228334
   102  C   -0.143805
   103  C   -0.114681
   104  H    0.158966
   105  C   -0.096678
   106  C   -0.142094
   107  H    0.159666
   108  H    0.160152
   109  H    0.160004
   110  C    0.551468
   111  F   -0.188802
   112  F   -0.184923
   113  F   -0.188352
   114  C    0.553449
   115  F   -0.189130
   116  F   -0.185182
   117  F   -0.183678
 Sum of Mulliken charges =   0.00000
 Mulliken charges with hydrogens summed into heavy atoms:
               1
     1  C    0.072130
     2  C    0.422348
     3  C   -0.132734
     4  C    0.019754
     5  C    0.197367
     6  N   -0.304795
     8  C   -0.192123
     9  C    0.218905
    10  C   -0.057906
    11  C   -0.096428
    12  C    0.051606
    16  C    0.323255
    17  C   -0.003801
    18  C   -0.015813
    19  C   -0.026325
    20  C   -0.015870
    22  C   -0.023005
    24  C    0.028902
    28  F   -0.224735
    29  C    0.072193
    33  C    0.158567
    34  C    0.160518
    35  C    0.181370
    38  C    0.183899
    45  N    0.008389
    46  O   -0.335545
    47  I   -0.033466
    49  C    0.019299
    50  C   -0.033243
    51  C   -0.028263
    52  C   -0.060744
    53  C    0.011551
    54  C    0.016632
    57  C    0.065247
    58  C    0.075016
    61  C   -0.141632
    62  C   -0.039188
    64  C    0.099072
    65  C   -0.074105
    66  C   -0.059201
    67  C   -0.123366
    68  C   -0.039648
    69  C   -0.027764
    70  C    0.047736
    71  C    0.013085
    72  C    0.020972
    75  C    0.019964
    79  S    0.860883
    80  O   -0.490861
    81  O   -0.501467
    82  S    0.936563
    83  O   -0.506650
    84  O   -0.552799
    85  N   -0.400166
    86  C    0.087293
    87  C    0.234386
    88  C    0.074759
    89  C    0.207335
    90  C   -0.038032
    91  C   -0.049471
    92  C   -0.170555
    93  C    0.032865
    95  C    0.078598
    96  C    0.009679
   100  C   -0.108485
   101  C   -0.069368
   102  C   -0.143805
   103  C    0.044985
   105  C    0.063474
   106  C    0.017910
   110  C    0.551468
   111  F   -0.188802
   112  F   -0.184923
   113  F   -0.188352
   114  C    0.553449
   115  F   -0.189130
   116  F   -0.185182
   117  F   -0.183678
 Electronic spatial extent (au):  <R**2>=          63401.7671
 Charge=              0.0000 electrons
 Dipole moment (field-independent basis, Debye):
    X=              0.6099    Y=             -3.7256    Z=              4.4602  Tot=              5.8434
 Quadrupole moment (field-independent basis, Debye-Ang):
   XX=           -462.3405   YY=           -411.0776   ZZ=           -457.7351
   XY=             -3.1975   XZ=             15.5385   YZ=              7.7137
 Traceless Quadrupole moment (field-independent basis, Debye-Ang):
   XX=            -18.6228   YY=             32.6401   ZZ=            -14.0173
   XY=             -3.1975   XZ=             15.5385   YZ=              7.7137
 Octapole moment (field-independent basis, Debye-Ang**2):
  XXX=           -308.3309  YYY=             17.6633  ZZZ=            110.6904  XYY=             54.3237
  XXY=           -296.8403  XXZ=           -107.0456  XZZ=           -104.7175  YZZ=            -42.3664
  YYZ=            -17.0405  XYZ=           -108.2005
 Hexadecapole moment (field-independent basis, Debye-Ang**3):
 XXXX=         -42014.5057 YYYY=         -26404.2680 ZZZZ=         -11396.1696 XXXY=            230.7203
 XXXZ=            550.3727 YYYX=            543.0509 YYYZ=            248.4262 ZZZX=             42.7421
 ZZZY=            286.4352 XXYY=         -11156.8913 XXZZ=          -9308.0813 YYZZ=          -6301.2786
 XXYZ=            178.7619 YYXZ=           -222.4804 ZZXY=            441.8255
 N-N= 1.560515732920D+04 E-N=-4.203837681842D+04  KE= 4.441801696026D+03
 Leave Link  601 at Tue Jun 11 19:32:07 2024, MaxMem=  8589934592 cpu:              32.1 elap:               1.7
 (Enter /opt/packages/gaussian/g16RevC.01/g16/l9999.exe)
 Unable to Open any file for archive entry.
 1\1\GINC-R388\SP\RB3LYP\def2TZVPP\C60H39F7I1N3O5S2\BIM2\11-Jun-2024\0\
 \#p b3lyp def2tzvpp scf=maxcycle=128 nosymm scrf=(smd,solvent=propylet
 hanoate) empiricaldispersion=gd3bj\\Title Card Required\\0,1\C,0,-0.29
 7174,-3.014164,0.186949\C,0,-1.222929,-1.901527,0.368905\C,0,-1.263938
 ,-1.362808,1.729233\C,0,-0.241812,-1.659322,2.57954\C,0,0.805425,-2.54
 0141,2.155672\N,0,0.675153,-3.272723,1.009258\H,0,-0.223604,-1.19703,3
 .562406\C,0,-0.489409,-3.971744,-0.946279\C,0,-0.183011,-3.689792,-2.2
 86166\C,0,-0.549435,-4.612437,-3.275127\C,0,-1.48159,-6.10046,-1.61381
 8\C,0,-1.191872,-5.803213,-2.944063\H,0,-0.305736,-4.392021,-4.3157\H,
 0,-1.465216,-6.511167,-3.727724\H,0,-1.98745,-7.019027,-1.315244\C,0,-
 1.125841,-5.175608,-0.645638\C,0,0.536069,-2.444974,-2.663045\C,0,1.80
 0627,-2.175926,-2.125222\C,0,-0.013208,-1.561496,-3.602769\C,0,2.51276
 3,-1.049654,-2.5347\H,0,2.232604,-2.867859,-1.39853\C,0,0.692936,-0.42
 7058,-3.993887\H,0,-1.006305,-1.760917,-4.011317\C,0,1.958538,-0.17143
 2,-3.464319\H,0,3.502408,-0.855069,-2.121304\H,0,0.246683,0.272188,-4.
 701837\H,0,2.507339,0.721927,-3.767599\F,0,-1.453636,-5.41365,0.6305\C
 ,0,-2.322231,-0.385453,2.114679\H,0,-2.091949,0.088673,3.075476\H,0,-2
 .400029,0.393262,1.339747\H,0,-3.303377,-0.879994,2.167949\C,0,2.90626
 5,-3.757915,2.548944\C,0,2.289772,-1.966904,4.050049\C,0,3.0509,-4.661
 858,3.768268\H,0,3.868514,-3.263793,2.345709\H,0,2.586791,-4.322802,1.
 669071\C,0,2.465627,-2.933224,5.215213\H,0,3.247941,-1.466958,3.83617\
 H,0,1.551479,-1.196581,4.285059\H,0,3.84081,-5.402587,3.587099\H,0,2.0
 98034,-5.198101,3.940523\H,0,2.82523,-2.389853,6.098641\H,0,1.488088,-
 3.393238,5.456927\N,0,1.920775,-2.719871,2.854409\O,0,3.414047,-3.9244
 03,4.909264\I,0,-3.104542,-2.096489,-0.612534\H,0,-0.687032,-0.829636,
 -0.200758\C,0,-0.114639,6.087633,2.998892\C,0,0.226241,5.241067,1.9710
 38\C,0,-0.765929,4.460697,1.313001\C,0,-2.112241,4.555813,1.767606\C,0
 ,-2.4375,5.448936,2.82656\C,0,-1.460697,6.203054,3.426527\H,0,0.660966
 ,6.673454,3.494519\H,0,1.269446,5.159072,1.66621\C,0,-0.458015,3.56199
 7,0.237098\C,0,-3.104709,3.736135,1.182684\H,0,-3.476814,5.511849,3.15
 4527\H,0,-1.713771,6.883896,4.240634\C,0,-2.799415,2.832166,0.182175\C
 ,0,-1.45089,2.760239,-0.295709\H,0,-4.131905,3.79918,1.546379\C,0,0.96
 3822,3.495001,-0.24047\C,0,1.750072,2.369153,-0.063401\C,0,1.502728,4.
 64002,-0.91554\C,0,3.124922,2.355314,-0.465301\C,0,2.871,4.630894,-1.3
 09555\C,0,0.71449,5.782728,-1.230547\C,0,3.659419,3.48587,-1.055561\C,
 0,3.423004,5.766625,-1.965633\C,0,1.270607,6.860801,-1.87641\H,0,-0.34
 3646,5.797503,-0.969108\H,0,4.711149,3.484961,-1.346999\C,0,2.640602,6
 .859885,-2.239861\H,0,4.476184,5.742693,-2.251719\H,0,0.649692,7.72513
 1,-2.116697\H,0,3.066453,7.726921,-2.747123\S,0,-0.929105,1.507429,-1.
 460128\O,0,-0.080665,2.161122,-2.403174\O,0,-2.052948,0.794817,-1.9662
 71\S,0,0.951761,0.925367,0.623263\O,0,0.292165,1.370923,1.813599\O,0,1
 .871704,-0.159142,0.76885\N,0,-0.116168,0.473498,-0.513067\C,0,-3.8622
 94,1.985855,-0.276302\C,0,-4.812345,1.283678,-0.551189\C,0,4.003064,1.
 23882,-0.28632\C,0,4.807654,0.33579,-0.197178\C,0,5.610195,-0.847068,-
 0.127888\C,0,4.962927,-2.077358,0.067726\C,0,7.009731,-0.829207,-0.283
 67\C,0,5.697345,-3.260085,0.100697\H,0,3.876944,-2.076683,0.18953\C,0,
 7.73825,-2.013727,-0.243842\C,0,7.082717,-3.2309,-0.054017\H,0,5.18314
 3,-4.211859,0.245733\H,0,8.82115,-1.985474,-0.365304\H,0,7.658637,-4.1
 56652,-0.029121\C,0,-5.871635,0.383788,-0.894599\C,0,-5.904403,-0.1918
 38,-2.174222\C,0,-6.861447,0.021159,0.04036\C,0,-6.902889,-1.102209,-2
 .51031\H,0,-5.130526,0.082362,-2.892219\C,0,-7.857649,-0.888181,-0.302
 019\C,0,-7.880067,-1.450402,-1.578454\H,0,-6.91611,-1.543058,-3.508208
 \H,0,-8.615415,-1.160625,0.432685\H,0,-8.662306,-2.163312,-1.841586\C,
 0,7.708817,0.488462,-0.494108\F,0,7.505245,1.327019,0.526737\F,0,9.028
 168,0.338911,-0.622069\F,0,7.275855,1.112301,-1.59521\C,0,-6.813652,0.
 602805,1.429438\F,0,-6.859731,1.939442,1.418608\F,0,-7.833335,0.183526
 ,2.180739\F,0,-5.689784,0.263538,2.07294\\Version=ES64L-G16RevC.01\HF=
 -4644.9997745\RMSD=3.633e-09\Dipole=0.2399633,-1.4657481,1.7547916\Qua
 drupole=-13.8455848,24.2671144,-10.4215296,-2.377261,11.5525053,5.7349
 26\PG=C01 [X(C60H39F7I1N3O5S2)]\\@
 The archive entry for this job was punched.


 TOWERING GENIUS DISDAINS A BEATEN PATH.  IT SEEKS 
 REGIONS HITHERTO UNEXPLORED.

                                -- ABRAHAM LINCOLN
 Job cpu time:       2 days  1 hours 27 minutes 15.8 seconds.
 Elapsed time:       0 days  1 hours 33 minutes 30.6 seconds.
 File lengths (MBytes):  RWF=   5911 Int=      0 D2E=      0 Chk=    522 Scr=      1
 Normal termination of Gaussian 16 at Tue Jun 11 19:32:08 2024.
