 Entering Gaussian System, Link 0=g16
 Initial command:
 /opt/packages/gaussian/g16RevC.01/g16/l1.exe "/local/Gau-80238.inp" -scrdir="/local/"
 Entering Link 1 = /opt/packages/gaussian/g16RevC.01/g16/l1.exe PID=     80253.
  
 Copyright (c) 1988-2019, Gaussian, Inc.  All Rights Reserved.
  
 This is part of the Gaussian(R) 16 program.  It is based on
 the Gaussian(R) 09 system (copyright 2009, Gaussian, Inc.),
 the Gaussian(R) 03 system (copyright 2003, Gaussian, Inc.),
 the Gaussian(R) 98 system (copyright 1998, Gaussian, Inc.),
 the Gaussian(R) 94 system (copyright 1995, Gaussian, Inc.),
 the Gaussian 92(TM) system (copyright 1992, Gaussian, Inc.),
 the Gaussian 90(TM) system (copyright 1990, Gaussian, Inc.),
 the Gaussian 88(TM) system (copyright 1988, Gaussian, Inc.),
 the Gaussian 86(TM) system (copyright 1986, Carnegie Mellon
 University), and the Gaussian 82(TM) system (copyright 1983,
 Carnegie Mellon University). Gaussian is a federally registered
 trademark of Gaussian, Inc.
  
 This software contains proprietary and confidential information,
 including trade secrets, belonging to Gaussian, Inc.
  
 This software is provided under written license and may be
 used, copied, transmitted, or stored only in accord with that
 written license.
  
 The following legend is applicable only to US Government
 contracts under FAR:
  
                    RESTRICTED RIGHTS LEGEND
  
 Use, reproduction and disclosure by the US Government is
 subject to restrictions as set forth in subparagraphs (a)
 and (c) of the Commercial Computer Software - Restricted
 Rights clause in FAR 52.227-19.
  
 Gaussian, Inc.
 340 Quinnipiac St., Bldg. 40, Wallingford CT 06492
  
  
 ---------------------------------------------------------------
 Warning -- This program may not be used in any manner that
 competes with the business of Gaussian, Inc. or will provide
 assistance to any competitor of Gaussian, Inc.  The licensee
 of this program is prohibited from giving any competitor of
 Gaussian, Inc. access to this program.  By using this program,
 the user acknowledges that Gaussian, Inc. is engaged in the
 business of creating and licensing software in the field of
 computational chemistry and represents and warrants to the
 licensee that it is not a competitor of Gaussian, Inc. and that
 it will not use this program in any manner prohibited above.
 ---------------------------------------------------------------
  

 Cite this work as:
 Gaussian 16, Revision C.01,
 M. J. Frisch, G. W. Trucks, H. B. Schlegel, G. E. Scuseria, 
 M. A. Robb, J. R. Cheeseman, G. Scalmani, V. Barone, 
 G. A. Petersson, H. Nakatsuji, X. Li, M. Caricato, A. V. Marenich, 
 J. Bloino, B. G. Janesko, R. Gomperts, B. Mennucci, H. P. Hratchian, 
 J. V. Ortiz, A. F. Izmaylov, J. L. Sonnenberg, D. Williams-Young, 
 F. Ding, F. Lipparini, F. Egidi, J. Goings, B. Peng, A. Petrone, 
 T. Henderson, D. Ranasinghe, V. G. Zakrzewski, J. Gao, N. Rega, 
 G. Zheng, W. Liang, M. Hada, M. Ehara, K. Toyota, R. Fukuda, 
 J. Hasegawa, M. Ishida, T. Nakajima, Y. Honda, O. Kitao, H. Nakai, 
 T. Vreven, K. Throssell, J. A. Montgomery, Jr., J. E. Peralta, 
 F. Ogliaro, M. J. Bearpark, J. J. Heyd, E. N. Brothers, K. N. Kudin, 
 V. N. Staroverov, T. A. Keith, R. Kobayashi, J. Normand, 
 K. Raghavachari, A. P. Rendell, J. C. Burant, S. S. Iyengar, 
 J. Tomasi, M. Cossi, J. M. Millam, M. Klene, C. Adamo, R. Cammi, 
 J. W. Ochterski, R. L. Martin, K. Morokuma, O. Farkas, 
 J. B. Foresman, and D. J. Fox, Gaussian, Inc., Wallingford CT, 2019.
 
 ******************************************
 Gaussian 16:  ES64L-G16RevC.01  3-Jul-2019
                11-Jun-2024 
 ******************************************
 %nprocshared=32
 Will use up to   32 processors via shared memory.
 %mem=64GB
 ----------------------------------------------------------------------
 #p b3lyp def2tzvpp scf=maxcycle=128 nosymm scrf=(smd,solvent=propyleth
 anoate) empiricaldispersion=gd3bj
 ----------------------------------------------------------------------
 1/38=1,172=1/1;
 2/12=2,15=1,17=6,18=5,40=1/2;
 3/5=44,7=202,11=2,25=1,30=1,70=32201,72=169,74=-5,124=41/1,2,3;
 4//1;
 5/5=2,7=128,38=5,53=169/2;
 6/7=2,8=2,9=2,10=2,28=1/1;
 99/5=1,9=1/99;
 Leave Link    1 at Tue Jun 11 17:54:37 2024, MaxMem=  8589934592 cpu:               0.7 elap:               0.0
 (Enter /opt/packages/gaussian/g16RevC.01/g16/l101.exe)
 -------------------
 Title Card Required
 -------------------
 Symbolic Z-matrix:
 Charge =  0 Multiplicity = 1
 C                    -0.65918  -2.81345  -0.43365 
 C                     0.4607   -2.14156  -1.09423 
 C                     1.77629  -2.45881  -0.52821 
 C                     1.84408  -3.00534   0.71969 
 C                     0.63028  -3.20872   1.44924 
 N                    -0.55874  -3.24566   0.78828 
 H                     2.81824  -3.15038   1.17906 
 C                    -2.00483  -3.01403  -1.05424 
 C                    -3.20358  -2.55598  -0.45793 
 C                    -4.4241   -2.86021  -1.07544 
 C                    -3.31539  -4.15909  -2.78003 
 C                    -4.48151  -3.63512  -2.23136 
 H                    -5.34443  -2.46688  -0.63822 
 H                    -5.44534  -3.85029  -2.69561 
 H                    -3.31666  -4.8145   -3.6512 
 C                    -2.11084  -3.85104  -2.16788 
 C                    -3.22896  -1.82743   0.84111 
 C                    -4.07216  -2.28919   1.86181 
 C                    -2.42563  -0.70777   1.08324 
 C                    -4.09845  -1.65181   3.10225 
 H                    -4.69526  -3.16925   1.68735 
 C                    -2.45442  -0.06595   2.32004 
 H                    -1.78893  -0.32855   0.2839 
 C                    -3.28967  -0.53935   3.33427 
 H                    -4.75505  -2.02741   3.88944 
 H                    -1.80988   0.7997    2.4836 
 H                    -3.31081  -0.0381    4.30375 
 F                    -1.00169  -4.44416  -2.62489 
 C                     3.02234  -2.01535  -1.21893 
 H                     2.95558  -0.93426  -1.4259 
 H                     3.90276  -2.20278  -0.59282 
 H                     3.14319  -2.52466  -2.18633 
 C                     1.74625  -3.36517   3.64984 
 C                    -0.68167  -3.43237   3.50983 
 C                     1.6627   -4.55123   4.6037 
 H                     1.73747  -2.42255   4.22129 
 H                     2.67581  -3.4176    3.07735 
 C                    -0.65347  -4.61551   4.46419 
 H                    -0.77711  -2.49507   4.08286 
 H                    -1.51679  -3.50302   2.80621 
 H                     2.48628  -4.49735   5.32784 
 H                     1.76436  -5.48904   4.02427 
 H                    -1.55742  -4.60736   5.08698 
 H                    -0.63428  -5.55758   3.88357 
 N                     0.58175  -3.37209   2.769 
 O                     0.45856  -4.54922   5.32441 
 I                     0.40936  -1.74585  -3.18312 
 H                     0.389    -0.91319  -0.67221 
 C                     1.96441   6.81985  -1.57494 
 C                     1.33621   5.7744   -0.94112 
 C                     2.06922   4.62025  -0.54674 
 C                     3.45947   4.56234  -0.84891 
 C                     4.08455   5.66338  -1.49754 
 C                     3.35373   6.7705   -1.84926 
 H                     1.38618   7.69508  -1.87488 
 H                     0.26453   5.82541  -0.74796 
 C                     1.45459   3.5048    0.11267 
 C                     4.19703   3.40126  -0.51883 
 H                     5.1525    5.60284  -1.71534 
 H                     3.83656   7.61105  -2.34999 
 C                     3.59843   2.30962   0.08064 
 C                     2.20231   2.37663   0.39783 
 H                     5.26157   3.36049  -0.75564 
 C                    -0.0091    3.58417   0.43539 
 C                    -0.93861   2.77736  -0.19631 
 C                    -0.43031   4.48702   1.46649 
 C                    -2.33316   2.85772   0.12377 
 C                    -1.81575   4.57043   1.78568 
 C                     0.48652   5.28061   2.21198 
 C                    -2.74049   3.75365   1.0953 
 C                    -2.2503    5.46191   2.80618 
 C                     0.03939   6.12689   3.19828 
 H                     1.55459   5.20902   2.00598 
 H                    -3.80173   3.82161   1.34129 
 C                    -1.34292   6.22696   3.49484 
 H                    -3.31711   5.51673   3.03113 
 H                     0.7568    6.72456   3.76264 
 H                    -1.68032   6.90707   4.27845 
 S                     1.30841   0.95085   0.99628 
 O                     0.4683    1.40184   2.06214 
 O                     2.20205  -0.12005   1.2949 
 S                    -0.31027   1.52135  -1.29985 
 O                     0.59559   2.16025  -2.19898 
 O                    -1.39065   0.77977  -1.86349 
 N                     0.45852   0.50056  -0.29938 
 C                     4.42297   1.16879   0.35725 
 C                     5.1665    0.23263   0.56086 
 C                    -3.35463   2.06646  -0.49626 
 C                    -4.28623   1.43112  -0.94223 
 C                    -5.32896   0.61648  -1.4883 
 C                    -6.49788   0.32781  -0.75492 
 C                    -5.18307   0.07132  -2.77268 
 C                    -7.48854  -0.48596  -1.29591 
 C                    -6.18151  -0.73506  -3.312 
 H                    -4.27244   0.28508  -3.3332 
 C                    -7.33232  -1.01721  -2.57708 
 H                    -8.38586  -0.70212  -0.71577 
 H                    -6.05392  -1.15191  -4.31236 
 H                    -8.11395  -1.65071  -2.99868 
 C                     5.93742  -0.9431    0.838 
 C                     5.77096  -1.59927   2.06771 
 C                     6.82869  -1.48962  -0.10689 
 C                     6.4779   -2.76659   2.34568 
 H                     5.07812  -1.17782   2.79712 
 C                     7.53186  -2.65653   0.17658 
 C                     7.35839  -3.2966    1.40381 
 H                     6.34047  -3.26423   3.30707 
 H                     8.21593  -3.06749  -0.56597 
 H                     7.91291  -4.21027   1.62092 
 C                    -6.66262   0.90514   0.62717 
 F                    -5.68909   0.51512   1.45308 
 F                    -7.81978   0.53872   1.18419 
 F                    -6.64387   2.24377   0.61422 
 C                     6.98981  -0.81689  -1.44587 
 F                     5.84509  -0.81274  -2.13839 
 F                     7.90159  -1.42921  -2.20325 
 F                     7.37225   0.45752  -1.32388 
 
 ITRead=  0  0  0  0  0  0  0  0  0  0  0  0  0  0  0  0  0  0  0  0
 ITRead=  0  0  0  0  0  0  0  0  0  0  0  0  0  0  0  0  0  0  0  0
 ITRead=  0  0  0  0  0  0  0  0  0  0  0  0  0  0  0  0  0  0  0  0
 ITRead=  0  0  0  0  0  0  0  0  0  0  0  0  0  0  0  0  0  0  0  0
 ITRead=  0  0  0  0  0  0  0  0  0  0  0  0  0  0  0  0  0  0  0  0
 ITRead=  0  0  0  0  0  0  0  0  0  0  0  0  0  0  0  0  0
 MicOpt= -1 -1 -1 -1 -1 -1 -1 -1 -1 -1 -1 -1 -1 -1 -1 -1 -1 -1 -1 -1
 MicOpt= -1 -1 -1 -1 -1 -1 -1 -1 -1 -1 -1 -1 -1 -1 -1 -1 -1 -1 -1 -1
 MicOpt= -1 -1 -1 -1 -1 -1 -1 -1 -1 -1 -1 -1 -1 -1 -1 -1 -1 -1 -1 -1
 MicOpt= -1 -1 -1 -1 -1 -1 -1 -1 -1 -1 -1 -1 -1 -1 -1 -1 -1 -1 -1 -1
 MicOpt= -1 -1 -1 -1 -1 -1 -1 -1 -1 -1 -1 -1 -1 -1 -1 -1 -1 -1 -1 -1
 MicOpt= -1 -1 -1 -1 -1 -1 -1 -1 -1 -1 -1 -1 -1 -1 -1 -1 -1
 NAtoms=    117 NQM=      117 NQMF=       0 NMMI=      0 NMMIF=      0
                NMic=       0 NMicF=      0.
                    Isotopes and Nuclear Properties:
 (Nuclear quadrupole moments (NQMom) in fm**2, nuclear magnetic moments (NMagM)
  in nuclear magnetons)

  Atom         1           2           3           4           5           6           7           8           9          10
 IAtWgt=          12          12          12          12          12          14           1          12          12          12
 AtmWgt=  12.0000000  12.0000000  12.0000000  12.0000000  12.0000000  14.0030740   1.0078250  12.0000000  12.0000000  12.0000000
 NucSpn=           0           0           0           0           0           2           1           0           0           0
 AtZEff=   0.0000000   0.0000000   0.0000000   0.0000000   0.0000000   0.0000000   0.0000000   0.0000000   0.0000000   0.0000000
 NQMom=    0.0000000   0.0000000   0.0000000   0.0000000   0.0000000   2.0440000   0.0000000   0.0000000   0.0000000   0.0000000
 NMagM=    0.0000000   0.0000000   0.0000000   0.0000000   0.0000000   0.4037610   2.7928460   0.0000000   0.0000000   0.0000000
 AtZNuc=   6.0000000   6.0000000   6.0000000   6.0000000   6.0000000   7.0000000   1.0000000   6.0000000   6.0000000   6.0000000

  Atom        11          12          13          14          15          16          17          18          19          20
 IAtWgt=          12          12           1           1           1          12          12          12          12          12
 AtmWgt=  12.0000000  12.0000000   1.0078250   1.0078250   1.0078250  12.0000000  12.0000000  12.0000000  12.0000000  12.0000000
 NucSpn=           0           0           1           1           1           0           0           0           0           0
 AtZEff=   0.0000000   0.0000000   0.0000000   0.0000000   0.0000000   0.0000000   0.0000000   0.0000000   0.0000000   0.0000000
 NQMom=    0.0000000   0.0000000   0.0000000   0.0000000   0.0000000   0.0000000   0.0000000   0.0000000   0.0000000   0.0000000
 NMagM=    0.0000000   0.0000000   2.7928460   2.7928460   2.7928460   0.0000000   0.0000000   0.0000000   0.0000000   0.0000000
 AtZNuc=   6.0000000   6.0000000   1.0000000   1.0000000   1.0000000   6.0000000   6.0000000   6.0000000   6.0000000   6.0000000

  Atom        21          22          23          24          25          26          27          28          29          30
 IAtWgt=           1          12           1          12           1           1           1          19          12           1
 AtmWgt=   1.0078250  12.0000000   1.0078250  12.0000000   1.0078250   1.0078250   1.0078250  18.9984032  12.0000000   1.0078250
 NucSpn=           1           0           1           0           1           1           1           1           0           1
 AtZEff=   0.0000000   0.0000000   0.0000000   0.0000000   0.0000000   0.0000000   0.0000000   0.0000000   0.0000000   0.0000000
 NQMom=    0.0000000   0.0000000   0.0000000   0.0000000   0.0000000   0.0000000   0.0000000   0.0000000   0.0000000   0.0000000
 NMagM=    2.7928460   0.0000000   2.7928460   0.0000000   2.7928460   2.7928460   2.7928460   2.6288670   0.0000000   2.7928460
 AtZNuc=   1.0000000   6.0000000   1.0000000   6.0000000   1.0000000   1.0000000   1.0000000   9.0000000   6.0000000   1.0000000

  Atom        31          32          33          34          35          36          37          38          39          40
 IAtWgt=           1           1          12          12          12           1           1          12           1           1
 AtmWgt=   1.0078250   1.0078250  12.0000000  12.0000000  12.0000000   1.0078250   1.0078250  12.0000000   1.0078250   1.0078250
 NucSpn=           1           1           0           0           0           1           1           0           1           1
 AtZEff=   0.0000000   0.0000000   0.0000000   0.0000000   0.0000000   0.0000000   0.0000000   0.0000000   0.0000000   0.0000000
 NQMom=    0.0000000   0.0000000   0.0000000   0.0000000   0.0000000   0.0000000   0.0000000   0.0000000   0.0000000   0.0000000
 NMagM=    2.7928460   2.7928460   0.0000000   0.0000000   0.0000000   2.7928460   2.7928460   0.0000000   2.7928460   2.7928460
 AtZNuc=   1.0000000   1.0000000   6.0000000   6.0000000   6.0000000   1.0000000   1.0000000   6.0000000   1.0000000   1.0000000

  Atom        41          42          43          44          45          46          47          48          49          50
 IAtWgt=           1           1           1           1          14          16         127           1          12          12
 AtmWgt=   1.0078250   1.0078250   1.0078250   1.0078250  14.0030740  15.9949146 126.9004000   1.0078250  12.0000000  12.0000000
 NucSpn=           1           1           1           1           2           0           5           1           0           0
 AtZEff=   0.0000000   0.0000000   0.0000000   0.0000000   0.0000000   0.0000000   0.0000000   0.0000000   0.0000000   0.0000000
 NQMom=    0.0000000   0.0000000   0.0000000   0.0000000   2.0440000   0.0000000 -71.0000000   0.0000000   0.0000000   0.0000000
 NMagM=    2.7928460   2.7928460   2.7928460   2.7928460   0.4037610   0.0000000   2.8132800   2.7928460   0.0000000   0.0000000
 AtZNuc=   1.0000000   1.0000000   1.0000000   1.0000000   7.0000000   8.0000000  53.0000000   1.0000000   6.0000000   6.0000000

  Atom        51          52          53          54          55          56          57          58          59          60
 IAtWgt=          12          12          12          12           1           1          12          12           1           1
 AtmWgt=  12.0000000  12.0000000  12.0000000  12.0000000   1.0078250   1.0078250  12.0000000  12.0000000   1.0078250   1.0078250
 NucSpn=           0           0           0           0           1           1           0           0           1           1
 AtZEff=   0.0000000   0.0000000   0.0000000   0.0000000   0.0000000   0.0000000   0.0000000   0.0000000   0.0000000   0.0000000
 NQMom=    0.0000000   0.0000000   0.0000000   0.0000000   0.0000000   0.0000000   0.0000000   0.0000000   0.0000000   0.0000000
 NMagM=    0.0000000   0.0000000   0.0000000   0.0000000   2.7928460   2.7928460   0.0000000   0.0000000   2.7928460   2.7928460
 AtZNuc=   6.0000000   6.0000000   6.0000000   6.0000000   1.0000000   1.0000000   6.0000000   6.0000000   1.0000000   1.0000000

  Atom        61          62          63          64          65          66          67          68          69          70
 IAtWgt=          12          12           1          12          12          12          12          12          12          12
 AtmWgt=  12.0000000  12.0000000   1.0078250  12.0000000  12.0000000  12.0000000  12.0000000  12.0000000  12.0000000  12.0000000
 NucSpn=           0           0           1           0           0           0           0           0           0           0
 AtZEff=   0.0000000   0.0000000   0.0000000   0.0000000   0.0000000   0.0000000   0.0000000   0.0000000   0.0000000   0.0000000
 NQMom=    0.0000000   0.0000000   0.0000000   0.0000000   0.0000000   0.0000000   0.0000000   0.0000000   0.0000000   0.0000000
 NMagM=    0.0000000   0.0000000   2.7928460   0.0000000   0.0000000   0.0000000   0.0000000   0.0000000   0.0000000   0.0000000
 AtZNuc=   6.0000000   6.0000000   1.0000000   6.0000000   6.0000000   6.0000000   6.0000000   6.0000000   6.0000000   6.0000000

  Atom        71          72          73          74          75          76          77          78          79          80
 IAtWgt=          12          12           1           1          12           1           1           1          32          16
 AtmWgt=  12.0000000  12.0000000   1.0078250   1.0078250  12.0000000   1.0078250   1.0078250   1.0078250  31.9720718  15.9949146
 NucSpn=           0           0           1           1           0           1           1           1           0           0
 AtZEff=   0.0000000   0.0000000   0.0000000   0.0000000   0.0000000   0.0000000   0.0000000   0.0000000   0.0000000   0.0000000
 NQMom=    0.0000000   0.0000000   0.0000000   0.0000000   0.0000000   0.0000000   0.0000000   0.0000000   0.0000000   0.0000000
 NMagM=    0.0000000   0.0000000   2.7928460   2.7928460   0.0000000   2.7928460   2.7928460   2.7928460   0.0000000   0.0000000
 AtZNuc=   6.0000000   6.0000000   1.0000000   1.0000000   6.0000000   1.0000000   1.0000000   1.0000000  16.0000000   8.0000000

  Atom        81          82          83          84          85          86          87          88          89          90
 IAtWgt=          16          32          16          16          14          12          12          12          12          12
 AtmWgt=  15.9949146  31.9720718  15.9949146  15.9949146  14.0030740  12.0000000  12.0000000  12.0000000  12.0000000  12.0000000
 NucSpn=           0           0           0           0           2           0           0           0           0           0
 AtZEff=   0.0000000   0.0000000   0.0000000   0.0000000   0.0000000   0.0000000   0.0000000   0.0000000   0.0000000   0.0000000
 NQMom=    0.0000000   0.0000000   0.0000000   0.0000000   2.0440000   0.0000000   0.0000000   0.0000000   0.0000000   0.0000000
 NMagM=    0.0000000   0.0000000   0.0000000   0.0000000   0.4037610   0.0000000   0.0000000   0.0000000   0.0000000   0.0000000
 AtZNuc=   8.0000000  16.0000000   8.0000000   8.0000000   7.0000000   6.0000000   6.0000000   6.0000000   6.0000000   6.0000000

  Atom        91          92          93          94          95          96          97          98          99         100
 IAtWgt=          12          12          12          12           1          12           1           1           1          12
 AtmWgt=  12.0000000  12.0000000  12.0000000  12.0000000   1.0078250  12.0000000   1.0078250   1.0078250   1.0078250  12.0000000
 NucSpn=           0           0           0           0           1           0           1           1           1           0
 AtZEff=   0.0000000   0.0000000   0.0000000   0.0000000   0.0000000   0.0000000   0.0000000   0.0000000   0.0000000   0.0000000
 NQMom=    0.0000000   0.0000000   0.0000000   0.0000000   0.0000000   0.0000000   0.0000000   0.0000000   0.0000000   0.0000000
 NMagM=    0.0000000   0.0000000   0.0000000   0.0000000   2.7928460   0.0000000   2.7928460   2.7928460   2.7928460   0.0000000
 AtZNuc=   6.0000000   6.0000000   6.0000000   6.0000000   1.0000000   6.0000000   1.0000000   1.0000000   1.0000000   6.0000000

  Atom       101         102         103         104         105         106         107         108         109         110
 IAtWgt=          12          12          12           1          12          12           1           1           1          12
 AtmWgt=  12.0000000  12.0000000  12.0000000   1.0078250  12.0000000  12.0000000   1.0078250   1.0078250   1.0078250  12.0000000
 NucSpn=           0           0           0           1           0           0           1           1           1           0
 AtZEff=   0.0000000   0.0000000   0.0000000   0.0000000   0.0000000   0.0000000   0.0000000   0.0000000   0.0000000   0.0000000
 NQMom=    0.0000000   0.0000000   0.0000000   0.0000000   0.0000000   0.0000000   0.0000000   0.0000000   0.0000000   0.0000000
 NMagM=    0.0000000   0.0000000   0.0000000   2.7928460   0.0000000   0.0000000   2.7928460   2.7928460   2.7928460   0.0000000
 AtZNuc=   6.0000000   6.0000000   6.0000000   1.0000000   6.0000000   6.0000000   1.0000000   1.0000000   1.0000000   6.0000000

  Atom       111         112         113         114         115         116         117
 IAtWgt=          19          19          19          12          19          19          19
 AtmWgt=  18.9984032  18.9984032  18.9984032  12.0000000  18.9984032  18.9984032  18.9984032
 NucSpn=           1           1           1           0           1           1           1
 AtZEff=   0.0000000   0.0000000   0.0000000   0.0000000   0.0000000   0.0000000   0.0000000
 NQMom=    0.0000000   0.0000000   0.0000000   0.0000000   0.0000000   0.0000000   0.0000000
 NMagM=    2.6288670   2.6288670   2.6288670   0.0000000   2.6288670   2.6288670   2.6288670
 AtZNuc=   9.0000000   9.0000000   9.0000000   6.0000000   9.0000000   9.0000000   9.0000000
 Leave Link  101 at Tue Jun 11 17:54:37 2024, MaxMem=  8589934592 cpu:               1.8 elap:               0.1
 (Enter /opt/packages/gaussian/g16RevC.01/g16/l202.exe)
 Symmetry turned off by external request.
 Stoichiometry    C60H39F7IN3O5S2
 Framework group  C1[X(C60H39F7IN3O5S2)]
 Deg. of freedom   345
 Full point group                 C1      NOp   1
                          Input orientation:                          
 ---------------------------------------------------------------------
 Center     Atomic      Atomic             Coordinates (Angstroms)
 Number     Number       Type             X           Y           Z
 ---------------------------------------------------------------------
      1          6           0       -0.659177   -2.813448   -0.433654
      2          6           0        0.460701   -2.141561   -1.094234
      3          6           0        1.776292   -2.458806   -0.528207
      4          6           0        1.844075   -3.005339    0.719689
      5          6           0        0.630280   -3.208716    1.449241
      6          7           0       -0.558744   -3.245661    0.788282
      7          1           0        2.818242   -3.150377    1.179064
      8          6           0       -2.004831   -3.014035   -1.054244
      9          6           0       -3.203585   -2.555983   -0.457932
     10          6           0       -4.424100   -2.860213   -1.075444
     11          6           0       -3.315386   -4.159085   -2.780032
     12          6           0       -4.481506   -3.635124   -2.231361
     13          1           0       -5.344427   -2.466881   -0.638223
     14          1           0       -5.445343   -3.850287   -2.695609
     15          1           0       -3.316657   -4.814504   -3.651200
     16          6           0       -2.110836   -3.851043   -2.167879
     17          6           0       -3.228957   -1.827429    0.841113
     18          6           0       -4.072164   -2.289188    1.861807
     19          6           0       -2.425627   -0.707772    1.083238
     20          6           0       -4.098453   -1.651814    3.102250
     21          1           0       -4.695262   -3.169246    1.687352
     22          6           0       -2.454421   -0.065954    2.320041
     23          1           0       -1.788927   -0.328548    0.283899
     24          6           0       -3.289671   -0.539352    3.334267
     25          1           0       -4.755054   -2.027407    3.889438
     26          1           0       -1.809882    0.799703    2.483602
     27          1           0       -3.310805   -0.038097    4.303753
     28          9           0       -1.001690   -4.444155   -2.624887
     29          6           0        3.022338   -2.015350   -1.218928
     30          1           0        2.955576   -0.934263   -1.425901
     31          1           0        3.902758   -2.202776   -0.592822
     32          1           0        3.143188   -2.524660   -2.186330
     33          6           0        1.746246   -3.365172    3.649840
     34          6           0       -0.681667   -3.432367    3.509825
     35          6           0        1.662702   -4.551226    4.603695
     36          1           0        1.737471   -2.422553    4.221287
     37          1           0        2.675813   -3.417597    3.077345
     38          6           0       -0.653470   -4.615507    4.464193
     39          1           0       -0.777113   -2.495072    4.082864
     40          1           0       -1.516786   -3.503024    2.806214
     41          1           0        2.486281   -4.497353    5.327835
     42          1           0        1.764361   -5.489042    4.024266
     43          1           0       -1.557418   -4.607361    5.086976
     44          1           0       -0.634277   -5.557582    3.883565
     45          7           0        0.581751   -3.372090    2.769002
     46          8           0        0.458555   -4.549223    5.324413
     47         53           0        0.409358   -1.745850   -3.183118
     48          1           0        0.388999   -0.913194   -0.672206
     49          6           0        1.964406    6.819849   -1.574939
     50          6           0        1.336214    5.774397   -0.941122
     51          6           0        2.069224    4.620245   -0.546744
     52          6           0        3.459465    4.562339   -0.848913
     53          6           0        4.084547    5.663377   -1.497541
     54          6           0        3.353733    6.770505   -1.849258
     55          1           0        1.386178    7.695076   -1.874877
     56          1           0        0.264528    5.825410   -0.747959
     57          6           0        1.454588    3.504796    0.112666
     58          6           0        4.197025    3.401255   -0.518833
     59          1           0        5.152495    5.602837   -1.715338
     60          1           0        3.836558    7.611051   -2.349987
     61          6           0        3.598425    2.309622    0.080644
     62          6           0        2.202308    2.376634    0.397827
     63          1           0        5.261565    3.360486   -0.755642
     64          6           0       -0.009097    3.584169    0.435387
     65          6           0       -0.938607    2.777359   -0.196305
     66          6           0       -0.430306    4.487023    1.466491
     67          6           0       -2.333156    2.857721    0.123769
     68          6           0       -1.815752    4.570429    1.785675
     69          6           0        0.486522    5.280611    2.211981
     70          6           0       -2.740491    3.753653    1.095300
     71          6           0       -2.250300    5.461909    2.806183
     72          6           0        0.039394    6.126892    3.198275
     73          1           0        1.554588    5.209018    2.005979
     74          1           0       -3.801727    3.821605    1.341294
     75          6           0       -1.342922    6.226964    3.494835
     76          1           0       -3.317106    5.516733    3.031133
     77          1           0        0.756796    6.724556    3.762639
     78          1           0       -1.680318    6.907069    4.278445
     79         16           0        1.308408    0.950847    0.996284
     80          8           0        0.468300    1.401837    2.062143
     81          8           0        2.202048   -0.120049    1.294901
     82         16           0       -0.310267    1.521349   -1.299848
     83          8           0        0.595592    2.160248   -2.198977
     84          8           0       -1.390654    0.779773   -1.863490
     85          7           0        0.458521    0.500559   -0.299383
     86          6           0        4.422967    1.168789    0.357250
     87          6           0        5.166495    0.232631    0.560855
     88          6           0       -3.354634    2.066464   -0.496259
     89          6           0       -4.286229    1.431120   -0.942234
     90          6           0       -5.328962    0.616480   -1.488298
     91          6           0       -6.497884    0.327812   -0.754920
     92          6           0       -5.183070    0.071316   -2.772683
     93          6           0       -7.488544   -0.485956   -1.295912
     94          6           0       -6.181507   -0.735064   -3.312003
     95          1           0       -4.272443    0.285079   -3.333200
     96          6           0       -7.332321   -1.017213   -2.577077
     97          1           0       -8.385863   -0.702121   -0.715767
     98          1           0       -6.053923   -1.151910   -4.312358
     99          1           0       -8.113946   -1.650709   -2.998675
    100          6           0        5.937422   -0.943102    0.837998
    101          6           0        5.770957   -1.599272    2.067713
    102          6           0        6.828685   -1.489621   -0.106893
    103          6           0        6.477900   -2.766589    2.345681
    104          1           0        5.078124   -1.177817    2.797118
    105          6           0        7.531856   -2.656525    0.176575
    106          6           0        7.358392   -3.296596    1.403810
    107          1           0        6.340473   -3.264228    3.307067
    108          1           0        8.215926   -3.067488   -0.565971
    109          1           0        7.912906   -4.210273    1.620916
    110          6           0       -6.662623    0.905144    0.627172
    111          9           0       -5.689090    0.515117    1.453077
    112          9           0       -7.819783    0.538718    1.184189
    113          9           0       -6.643866    2.243772    0.614220
    114          6           0        6.989812   -0.816893   -1.445867
    115          9           0        5.845090   -0.812742   -2.138393
    116          9           0        7.901594   -1.429211   -2.203250
    117          9           0        7.372251    0.457522   -1.323881
 ---------------------------------------------------------------------
 Rotational constants (GHZ):           0.0312018           0.0215704           0.0177452
 Leave Link  202 at Tue Jun 11 17:54:37 2024, MaxMem=  8589934592 cpu:               0.1 elap:               0.0
 (Enter /opt/packages/gaussian/g16RevC.01/g16/l301.exe)
 Standard basis: def2TZVPP (5D, 7F)
 Ernie: Thresh=  0.10000D-02 Tol=  0.10000D-05 Strict=F.
  3005 basis functions,  4735 primitive gaussians,  3440 cartesian basis functions
   290 alpha electrons      290 beta electrons
       nuclear repulsion energy     15667.3267773435 Hartrees.
 IExCor=  402 DFT=T Ex+Corr=B3LYP ExCW=0 ScaHFX=  0.200000
 ScaDFX=  0.800000  0.720000  1.000000  0.810000 ScalE2=  1.000000  1.000000
 IRadAn=      5 IRanWt=     -1 IRanGd=            0 ICorTp=0 IEmpDi=141
 NAtoms=  117 NActive=  117 NUniq=  117 SFac= 1.00D+00 NAtFMM=   60 NAOKFM=T Big=T
 Integral buffers will be    131072 words long.
 Raffenetti 2 integral format.
 Two-electron integral symmetry is turned off.
 R6Disp:  Grimme-D3(BJ) Dispersion energy=       -0.3871048180 Hartrees.
 Nuclear repulsion after empirical dispersion term =    15666.9396725255 Hartrees.
 ------------------------------------------------------------------------------
 Polarizable Continuum Model (PCM)
 =================================
 Model                : PCM.
 Atomic radii         : SMD-Coulomb.
 Polarization charges : Total charges.
 Charge compensation  : None.
 Solution method      : On-the-fly selection.
 Cavity type          : VdW (van der Waals Surface) (Alpha=1.000).
 Cavity algorithm     : GePol (No added spheres)
                        Default sphere list used, NSphG=  117.
                        Lebedev-Laikov grids with approx.  5.0 points / Ang**2.
                        Smoothing algorithm: York/Karplus (Gamma=1.0000).
                        Polarization charges: spherical gaussians, with
                                              point-specific exponents (IZeta= 3).
                        Self-potential: point-specific (ISelfS= 7).
                        Self-field    : sphere-specific E.n sum rule (ISelfD= 2).
 Solvent              : PropylEthanoate, Eps=   5.520500 Eps(inf)=   1.916010
 ------------------------------------------------------------------------------
 GePol: Number of generator spheres                  =     117
 GePol: Total number of spheres                      =     117
 GePol: Number of exposed spheres                    =     117 (100.00%)
 GePol: Number of points                             =    8442
 GePol: Average weight of points                     =       0.11
 GePol: Minimum weight of points                     =   0.16D-11
 GePol: Maximum weight of points                     =    0.21501
 GePol: Number of points with low weight             =     571
 GePol: Fraction of low-weight points (<1% of avg)   =       6.76%
 GePol: Cavity surface area                          =    946.651 Ang**2
 GePol: Cavity volume                                =   1077.719 Ang**3
 ------------------------------------------------------------------------------
 Atomic radii for non-electrostatic terms: SMD-CDS.
 ------------------------------------------------------------------------------
 PCM non-electrostatic energy =        -0.0220685778 Hartrees.
 Nuclear repulsion after PCM non-electrostatic terms =    15666.9176039478 Hartrees.
 Leave Link  301 at Tue Jun 11 17:54:37 2024, MaxMem=  8589934592 cpu:               3.7 elap:               0.1
 (Enter /opt/packages/gaussian/g16RevC.01/g16/l302.exe)
 NPDir=0 NMtPBC=     1 NCelOv=     1 NCel=       1 NClECP=     1 NCelD=      1
         NCelK=      1 NCelE2=     1 NClLst=     1 CellRange=     0.0.
 One-electron integrals computed using PRISM.
   1 Symmetry operations used in ECPInt.
 ECPInt:  NShTT=  608856 NPrTT= 1802125 LenC2=  386641 LenP2D=  730021.
 LDataN:  DoStor=T MaxTD1= 7 Len=  274
 Number of processors reduced to  17 by ecpmxn.
 NBasis=  3005 RedAO= T EigKep=  1.88D-06  NBF=  3005
 NBsUse=  3005 1.00D-06 EigRej= -1.00D+00 NBFU=  3005
 Precomputing XC quadrature grid using
 IXCGrd= 4 IRadAn=           5 IRanWt=          -1 IRanGd=           0 AccXCQ= 0.00D+00.
 Defaulting to unpruned grid for atomic number  53.
 Generated NRdTot=       0 NPtTot=           0 NUsed=           0 NTot=          32
 NSgBfM=  2889  2870  2889  2889  2889 MxSgAt=   117 MxSgA2=   117.
 Leave Link  302 at Tue Jun 11 17:54:59 2024, MaxMem=  8589934592 cpu:             656.7 elap:              21.3
 (Enter /opt/packages/gaussian/g16RevC.01/g16/l303.exe)
 DipDrv:  MaxL=1.
 Leave Link  303 at Tue Jun 11 17:55:00 2024, MaxMem=  8589934592 cpu:              34.4 elap:               1.4
 (Enter /opt/packages/gaussian/g16RevC.01/g16/l401.exe)
 ExpMin= 7.49D-02 ExpMax= 6.07D+04 ExpMxC= 2.07D+03 IAcc=3 IRadAn=         5 AccDes= 0.00D+00
 Harris functional with IExCor=  402 and IRadAn=       5 diagonalized for initial guess.
 HarFok:  IExCor=  402 AccDes= 0.00D+00 IRadAn=         5 IDoV= 1 UseB2=F ITyADJ=14
 ICtDFT=  3500011 ScaDFX=  1.000000  1.000000  1.000000  1.000000
 Defaulting to unpruned grid for atomic number  53.
 FoFCou: FMM=F IPFlag=           0 FMFlag=      100000 FMFlg1=        2001
         NFxFlg=           0 DoJE=T BraDBF=F KetDBF=T FulRan=T
         wScrn=  0.000000 ICntrl=       500 IOpCl=  0 I1Cent=   200000004 NGrid=           0
         NMat0=    1 NMatS0=      1 NMatT0=    0 NMatD0=    1 NMtDS0=    0 NMtDT0=    0
 Symmetry not used in FoFCou.
 Harris En= -4644.99525202743    
 JPrj=0 DoOrth=F DoCkMO=F.
 Leave Link  401 at Tue Jun 11 17:55:27 2024, MaxMem=  8589934592 cpu:             852.6 elap:              26.8
 (Enter /opt/packages/gaussian/g16RevC.01/g16/l502.exe)
 Two-electron integral symmetry not used.
 Closed shell SCF:
 Using DIIS extrapolation, IDIIS=  1040.
 NGot=  8589934592 LenX=  8566133628 LenY=  8554296588
 Requested convergence on RMS density matrix=1.00D-08 within 128 cycles.
 Requested convergence on MAX density matrix=1.00D-06.
 Requested convergence on             energy=1.00D-06.
 No special actions if energy rises.
 Fock matrices will be formed incrementally for  20 cycles.

 Cycle   1  Pass 1  IDiag  1:
 FoFJK:  IHMeth= 1 ICntrl=       0 DoSepK=F KAlg= 0 I1Cent=           0 FoldK=F
 IRaf= 590000000 NMat=       1 IRICut=       1 DoRegI=T DoRafI=F ISym2E= 0 IDoP0=0 IntGTp=1.
 FoFCou: FMM=T IPFlag=           0 FMFlag=      100000 FMFlg1=        2001
         NFxFlg=           0 DoJE=F BraDBF=F KetDBF=F FulRan=T
         wScrn=  0.000000 ICntrl=         0 IOpCl=  0 I1Cent=           0 NGrid=           0
         NMat0=    1 NMatS0=      1 NMatT0=    0 NMatD0=    1 NMtDS0=    0 NMtDT0=    0
 Symmetry not used in FoFCou.
 FMM levels:  10  Number of levels for PrismC:   9
 Defaulting to unpruned grid for atomic number  53.
 Defaulting to unpruned grid for atomic number  53.
 Defaulting to unpruned grid for atomic number  53.
 Defaulting to unpruned grid for atomic number  53.
 Defaulting to unpruned grid for atomic number  53.
 Defaulting to unpruned grid for atomic number  53.
 Defaulting to unpruned grid for atomic number  53.
 Defaulting to unpruned grid for atomic number  53.
 Defaulting to unpruned grid for atomic number  53.
 Defaulting to unpruned grid for atomic number  53.
 Defaulting to unpruned grid for atomic number  53.
 Defaulting to unpruned grid for atomic number  53.
 Defaulting to unpruned grid for atomic number  53.
 Defaulting to unpruned grid for atomic number  53.
 Defaulting to unpruned grid for atomic number  53.
 Defaulting to unpruned grid for atomic number  53.
 Defaulting to unpruned grid for atomic number  53.
 Defaulting to unpruned grid for atomic number  53.
 Defaulting to unpruned grid for atomic number  53.
 Defaulting to unpruned grid for atomic number  53.
 Defaulting to unpruned grid for atomic number  53.
 Defaulting to unpruned grid for atomic number  53.
 Defaulting to unpruned grid for atomic number  53.
 Defaulting to unpruned grid for atomic number  53.
 Defaulting to unpruned grid for atomic number  53.
 Defaulting to unpruned grid for atomic number  53.
 Defaulting to unpruned grid for atomic number  53.
 Defaulting to unpruned grid for atomic number  53.
 Defaulting to unpruned grid for atomic number  53.
 Defaulting to unpruned grid for atomic number  53.
 Defaulting to unpruned grid for atomic number  53.
 Defaulting to unpruned grid for atomic number  53.
 Inv3:  Mode=1 IEnd=   213802092.
 Iteration    1 A*A^-1 deviation from unit magnitude is 3.55D-15 for    728.
 Iteration    1 A*A^-1 deviation from orthogonality  is 2.51D-15 for   4699   1416.
 Iteration    1 A^-1*A deviation from unit magnitude is 4.00D-15 for   1264.
 Iteration    1 A^-1*A deviation from orthogonality  is 3.33D-14 for   4833   4801.
 E= -4643.09196151180    
 DIIS: error= 8.68D-03 at cycle   1 NSaved=   1.
 NSaved= 1 IEnMin= 1 EnMin= -4643.09196151180     IErMin= 1 ErrMin= 8.68D-03
 ErrMax= 8.68D-03  0.00D+00 EMaxC= 1.00D-01 BMatC= 2.40D+00 BMatP= 2.40D+00
 IDIUse=3 WtCom= 9.13D-01 WtEn= 8.68D-02
 Coeff-Com:  0.100D+01
 Coeff-En:   0.100D+01
 Coeff:      0.100D+01
 Gap=     0.285 Goal=   None    Shift=    0.000
 GapD=    0.285 DampG=1.000 DampE=1.000 DampFc=1.0000 IDamp=-1.
 RMSDP=2.65D-03 MaxDP=1.43D+00              OVMax= 2.44D-01

 Cycle   2  Pass 1  IDiag  1:
 RMSU=  2.62D-03    CP:  1.09D+00
 E= -4640.92435766558     Delta-E=        2.167603846225 Rises=F Damp=F
 DIIS: error= 2.02D-02 at cycle   2 NSaved=   2.
 NSaved= 2 IEnMin= 1 EnMin= -4643.09196151180     IErMin= 1 ErrMin= 8.68D-03
 ErrMax= 2.02D-02  0.00D+00 EMaxC= 1.00D-01 BMatC= 5.33D+00 BMatP= 2.40D+00
 IDIUse=2 WtCom= 0.00D+00 WtEn= 1.00D+00
 Coeff-En:   0.670D+00 0.330D+00
 Coeff:      0.670D+00 0.330D+00
 Gap=     0.124 Goal=   None    Shift=    0.000
 RMSDP=1.98D-03 MaxDP=1.09D+00 DE= 2.17D+00 OVMax= 2.07D-01

 Cycle   3  Pass 1  IDiag  1:
 RMSU=  8.47D-04    CP:  1.02D+00  3.24D-01
 E= -4644.78845146812     Delta-E=       -3.864093802538 Rises=F Damp=F
 DIIS: error= 4.84D-03 at cycle   3 NSaved=   3.
 NSaved= 3 IEnMin= 3 EnMin= -4644.78845146812     IErMin= 3 ErrMin= 4.84D-03
 ErrMax= 4.84D-03  0.00D+00 EMaxC= 1.00D-01 BMatC= 2.15D-01 BMatP= 2.40D+00
 IDIUse=3 WtCom= 9.52D-01 WtEn= 4.84D-02
 Coeff-Com:  0.279D+00 0.164D+00 0.557D+00
 Coeff-En:   0.000D+00 0.000D+00 0.100D+01
 Coeff:      0.266D+00 0.156D+00 0.578D+00
 Gap=     0.140 Goal=   None    Shift=    0.000
 RMSDP=7.82D-04 MaxDP=2.16D-01 DE=-3.86D+00 OVMax= 8.48D-02

 Cycle   4  Pass 1  IDiag  1:
 RMSU=  4.70D-04    CP:  9.93D-01  2.84D-01  2.84D-01
 E= -4644.92915338629     Delta-E=       -0.140701918173 Rises=F Damp=F
 DIIS: error= 3.54D-03 at cycle   4 NSaved=   4.
 NSaved= 4 IEnMin= 4 EnMin= -4644.92915338629     IErMin= 4 ErrMin= 3.54D-03
 ErrMax= 3.54D-03  0.00D+00 EMaxC= 1.00D-01 BMatC= 7.62D-02 BMatP= 2.15D-01
 IDIUse=3 WtCom= 9.65D-01 WtEn= 3.54D-02
 Coeff-Com:  0.743D-01 0.295D-01 0.374D+00 0.523D+00
 Coeff-En:   0.000D+00 0.000D+00 0.266D+00 0.734D+00
 Coeff:      0.717D-01 0.284D-01 0.370D+00 0.530D+00
 Gap=     0.135 Goal=   None    Shift=    0.000
 RMSDP=2.77D-04 MaxDP=1.18D-01 DE=-1.41D-01 OVMax= 6.00D-02

 Cycle   5  Pass 1  IDiag  1:
 RMSU=  1.31D-04    CP:  9.96D-01  2.76D-01  5.08D-01  6.78D-01
 E= -4644.99070070381     Delta-E=       -0.061547317515 Rises=F Damp=F
 DIIS: error= 9.31D-04 at cycle   5 NSaved=   5.
 NSaved= 5 IEnMin= 5 EnMin= -4644.99070070381     IErMin= 5 ErrMin= 9.31D-04
 ErrMax= 9.31D-04  0.00D+00 EMaxC= 1.00D-01 BMatC= 7.72D-03 BMatP= 7.62D-02
 IDIUse=3 WtCom= 9.91D-01 WtEn= 9.31D-03
 Coeff-Com:  0.132D-01-0.220D-02 0.164D+00 0.321D+00 0.503D+00
 Coeff-En:   0.000D+00 0.000D+00 0.000D+00 0.490D-01 0.951D+00
 Coeff:      0.131D-01-0.218D-02 0.163D+00 0.319D+00 0.507D+00
 Gap=     0.133 Goal=   None    Shift=    0.000
 RMSDP=6.45D-05 MaxDP=1.56D-02 DE=-6.15D-02 OVMax= 2.23D-02

 Cycle   6  Pass 1  IDiag  1:
 RMSU=  4.13D-05    CP:  9.96D-01  2.78D-01  5.03D-01  7.00D-01  6.34D-01
 E= -4644.99720632101     Delta-E=       -0.006505617202 Rises=F Damp=F
 DIIS: error= 3.88D-04 at cycle   6 NSaved=   6.
 NSaved= 6 IEnMin= 6 EnMin= -4644.99720632101     IErMin= 6 ErrMin= 3.88D-04
 ErrMax= 3.88D-04  0.00D+00 EMaxC= 1.00D-01 BMatC= 8.81D-04 BMatP= 7.72D-03
 IDIUse=3 WtCom= 9.96D-01 WtEn= 3.88D-03
 Coeff-Com:  0.188D-02-0.417D-02 0.665D-01 0.142D+00 0.313D+00 0.481D+00
 Coeff-En:   0.000D+00 0.000D+00 0.000D+00 0.000D+00 0.808D-01 0.919D+00
 Coeff:      0.187D-02-0.415D-02 0.663D-01 0.141D+00 0.312D+00 0.483D+00
 Gap=     0.132 Goal=   None    Shift=    0.000
 RMSDP=1.63D-05 MaxDP=2.02D-03 DE=-6.51D-03 OVMax= 6.16D-03

 Cycle   7  Pass 1  IDiag  1:
 RMSU=  1.25D-05    CP:  9.96D-01  2.79D-01  5.10D-01  6.94D-01  6.62D-01
                    CP:  8.18D-01
 E= -4644.99797492963     Delta-E=       -0.000768608625 Rises=F Damp=F
 DIIS: error= 1.44D-04 at cycle   7 NSaved=   7.
 NSaved= 7 IEnMin= 7 EnMin= -4644.99797492963     IErMin= 7 ErrMin= 1.44D-04
 ErrMax= 1.44D-04  0.00D+00 EMaxC= 1.00D-01 BMatC= 1.12D-04 BMatP= 8.81D-04
 IDIUse=3 WtCom= 9.99D-01 WtEn= 1.44D-03
 Coeff-Com: -0.211D-03-0.249D-02 0.234D-01 0.513D-01 0.140D+00 0.312D+00
 Coeff-Com:  0.475D+00
 Coeff-En:   0.000D+00 0.000D+00 0.000D+00 0.000D+00 0.000D+00 0.845D-01
 Coeff-En:   0.915D+00
 Coeff:     -0.211D-03-0.248D-02 0.233D-01 0.512D-01 0.140D+00 0.312D+00
 Coeff:      0.476D+00
 Gap=     0.132 Goal=   None    Shift=    0.000
 RMSDP=6.28D-06 MaxDP=1.84D-03 DE=-7.69D-04 OVMax= 2.01D-03

 Cycle   8  Pass 1  IDiag  1:
 RMSU=  4.88D-06    CP:  9.97D-01  2.79D-01  5.10D-01  6.95D-01  6.73D-01
                    CP:  7.82D-01  7.34D-01
 E= -4644.99807390833     Delta-E=       -0.000098978693 Rises=F Damp=F
 DIIS: error= 3.84D-05 at cycle   8 NSaved=   8.
 NSaved= 8 IEnMin= 8 EnMin= -4644.99807390833     IErMin= 8 ErrMin= 3.84D-05
 ErrMax= 3.84D-05  0.00D+00 EMaxC= 1.00D-01 BMatC= 8.98D-06 BMatP= 1.12D-04
 IDIUse=1 WtCom= 1.00D+00 WtEn= 0.00D+00
 Coeff-Com: -0.270D-03-0.104D-02 0.691D-02 0.152D-01 0.509D-01 0.135D+00
 Coeff-Com:  0.276D+00 0.517D+00
 Coeff:     -0.270D-03-0.104D-02 0.691D-02 0.152D-01 0.509D-01 0.135D+00
 Coeff:      0.276D+00 0.517D+00
 Gap=     0.132 Goal=   None    Shift=    0.000
 RMSDP=2.08D-06 MaxDP=5.54D-04 DE=-9.90D-05 OVMax= 6.29D-04

 Cycle   9  Pass 1  IDiag  1:
 RMSU=  1.54D-06    CP:  9.97D-01  2.79D-01  5.09D-01  6.96D-01  6.70D-01
                    CP:  7.84D-01  7.41D-01  8.29D-01
 E= -4644.99808111171     Delta-E=       -0.000007203385 Rises=F Damp=F
 DIIS: error= 1.16D-05 at cycle   9 NSaved=   9.
 NSaved= 9 IEnMin= 9 EnMin= -4644.99808111171     IErMin= 9 ErrMin= 1.16D-05
 ErrMax= 1.16D-05  0.00D+00 EMaxC= 1.00D-01 BMatC= 1.42D-06 BMatP= 8.98D-06
 IDIUse=1 WtCom= 1.00D+00 WtEn= 0.00D+00
 Coeff-Com: -0.122D-03-0.243D-03 0.739D-03 0.157D-02 0.105D-01 0.367D-01
 Coeff-Com:  0.935D-01 0.316D+00 0.541D+00
 Coeff:     -0.122D-03-0.243D-03 0.739D-03 0.157D-02 0.105D-01 0.367D-01
 Coeff:      0.935D-01 0.316D+00 0.541D+00
 Gap=     0.132 Goal=   None    Shift=    0.000
 RMSDP=8.67D-07 MaxDP=2.88D-04 DE=-7.20D-06 OVMax= 3.06D-04

 Cycle  10  Pass 1  IDiag  1:
 RMSU=  6.56D-07    CP:  9.97D-01  2.79D-01  5.09D-01  6.96D-01  6.71D-01
                    CP:  7.90D-01  7.42D-01  8.16D-01  7.31D-01
 E= -4644.99808231172     Delta-E=       -0.000001200005 Rises=F Damp=F
 DIIS: error= 3.61D-06 at cycle  10 NSaved=  10.
 NSaved=10 IEnMin=10 EnMin= -4644.99808231172     IErMin=10 ErrMin= 3.61D-06
 ErrMax= 3.61D-06  0.00D+00 EMaxC= 1.00D-01 BMatC= 2.02D-07 BMatP= 1.42D-06
 IDIUse=1 WtCom= 1.00D+00 WtEn= 0.00D+00
 Coeff-Com: -0.568D-04-0.383D-04-0.268D-03-0.639D-03 0.139D-02 0.892D-02
 Coeff-Com:  0.286D-01 0.141D+00 0.338D+00 0.483D+00
 Coeff:     -0.568D-04-0.383D-04-0.268D-03-0.639D-03 0.139D-02 0.892D-02
 Coeff:      0.286D-01 0.141D+00 0.338D+00 0.483D+00
 Gap=     0.132 Goal=   None    Shift=    0.000
 RMSDP=3.98D-07 MaxDP=1.82D-04 DE=-1.20D-06 OVMax= 1.17D-04

 Cycle  11  Pass 1  IDiag  1:
 RMSU=  2.40D-07    CP:  9.97D-01  2.79D-01  5.09D-01  6.96D-01  6.71D-01
                    CP:  7.88D-01  7.45D-01  8.41D-01  8.14D-01  7.13D-01
 E= -4644.99808249072     Delta-E=       -0.000000179007 Rises=F Damp=F
 DIIS: error= 1.19D-06 at cycle  11 NSaved=  11.
 NSaved=11 IEnMin=11 EnMin= -4644.99808249072     IErMin=11 ErrMin= 1.19D-06
 ErrMax= 1.19D-06  0.00D+00 EMaxC= 1.00D-01 BMatC= 2.06D-08 BMatP= 2.02D-07
 IDIUse=1 WtCom= 1.00D+00 WtEn= 0.00D+00
 Coeff-Com: -0.213D-04 0.751D-05-0.226D-03-0.512D-03-0.250D-03 0.120D-02
 Coeff-Com:  0.574D-02 0.450D-01 0.133D+00 0.288D+00 0.527D+00
 Coeff:     -0.213D-04 0.751D-05-0.226D-03-0.512D-03-0.250D-03 0.120D-02
 Coeff:      0.574D-02 0.450D-01 0.133D+00 0.288D+00 0.527D+00
 Gap=     0.132 Goal=   None    Shift=    0.000
 RMSDP=1.44D-07 MaxDP=4.14D-05 DE=-1.79D-07 OVMax= 3.82D-05

 Cycle  12  Pass 1  IDiag  1:
 RMSU=  9.02D-08    CP:  9.97D-01  2.79D-01  5.09D-01  6.95D-01  6.71D-01
                    CP:  7.89D-01  7.47D-01  8.50D-01  8.06D-01  7.35D-01
                    CP:  7.14D-01
 E= -4644.99808250908     Delta-E=       -0.000000018361 Rises=F Damp=F
 DIIS: error= 3.68D-07 at cycle  12 NSaved=  12.
 NSaved=12 IEnMin=12 EnMin= -4644.99808250908     IErMin=12 ErrMin= 3.68D-07
 ErrMax= 3.68D-07  0.00D+00 EMaxC= 1.00D-01 BMatC= 2.46D-09 BMatP= 2.06D-08
 IDIUse=1 WtCom= 1.00D+00 WtEn= 0.00D+00
 Coeff-Com: -0.535D-05 0.130D-04-0.120D-03-0.258D-03-0.422D-03-0.658D-03
 Coeff-Com: -0.759D-03 0.723D-02 0.312D-01 0.962D-01 0.299D+00 0.568D+00
 Coeff:     -0.535D-05 0.130D-04-0.120D-03-0.258D-03-0.422D-03-0.658D-03
 Coeff:     -0.759D-03 0.723D-02 0.312D-01 0.962D-01 0.299D+00 0.568D+00
 Gap=     0.132 Goal=   None    Shift=    0.000
 RMSDP=6.02D-08 MaxDP=2.01D-05 DE=-1.84D-08 OVMax= 1.30D-05

 Cycle  13  Pass 1  IDiag  1:
 RMSU=  2.92D-08    CP:  9.97D-01  2.79D-01  5.09D-01  6.96D-01  6.71D-01
                    CP:  7.89D-01  7.46D-01  8.50D-01  8.14D-01  7.47D-01
                    CP:  7.58D-01  7.79D-01
 E= -4644.99808251241     Delta-E=       -0.000000003325 Rises=F Damp=F
 DIIS: error= 1.40D-07 at cycle  13 NSaved=  13.
 NSaved=13 IEnMin=13 EnMin= -4644.99808251241     IErMin=13 ErrMin= 1.40D-07
 ErrMax= 1.40D-07  0.00D+00 EMaxC= 1.00D-01 BMatC= 2.96D-10 BMatP= 2.46D-09
 IDIUse=1 WtCom= 1.00D+00 WtEn= 0.00D+00
 Coeff-Com: -0.272D-06 0.554D-05-0.282D-04-0.571D-04-0.166D-03-0.519D-03
 Coeff-Com: -0.127D-02-0.258D-02-0.258D-02 0.855D-02 0.865D-01 0.307D+00
 Coeff-Com:  0.605D+00
 Coeff:     -0.272D-06 0.554D-05-0.282D-04-0.571D-04-0.166D-03-0.519D-03
 Coeff:     -0.127D-02-0.258D-02-0.258D-02 0.855D-02 0.865D-01 0.307D+00
 Coeff:      0.605D+00
 Gap=     0.132 Goal=   None    Shift=    0.000
 RMSDP=2.00D-08 MaxDP=7.02D-06 DE=-3.33D-09 OVMax= 5.71D-06

 Cycle  14  Pass 1  IDiag  1:
 RMSU=  1.07D-08    CP:  9.97D-01  2.79D-01  5.09D-01  6.96D-01  6.71D-01
                    CP:  7.89D-01  7.46D-01  8.50D-01  8.14D-01  7.54D-01
                    CP:  7.82D-01  8.41D-01  7.90D-01
 E= -4644.99808251254     Delta-E=       -0.000000000135 Rises=F Damp=F
 DIIS: error= 7.31D-08 at cycle  14 NSaved=  14.
 NSaved=14 IEnMin=14 EnMin= -4644.99808251254     IErMin=14 ErrMin= 7.31D-08
 ErrMax= 7.31D-08  0.00D+00 EMaxC= 1.00D-01 BMatC= 5.38D-11 BMatP= 2.96D-10
 IDIUse=1 WtCom= 1.00D+00 WtEn= 0.00D+00
 Coeff-Com:  0.575D-06 0.127D-05-0.434D-06 0.228D-07-0.420D-04-0.222D-03
 Coeff-Com: -0.632D-03-0.247D-02-0.614D-02-0.970D-02 0.530D-02 0.907D-01
 Coeff-Com:  0.359D+00 0.564D+00
 Coeff:      0.575D-06 0.127D-05-0.434D-06 0.228D-07-0.420D-04-0.222D-03
 Coeff:     -0.632D-03-0.247D-02-0.614D-02-0.970D-02 0.530D-02 0.907D-01
 Coeff:      0.359D+00 0.564D+00
 Gap=     0.132 Goal=   None    Shift=    0.000
 RMSDP=6.42D-09 MaxDP=2.15D-06 DE=-1.35D-10 OVMax= 1.52D-06

 Cycle  15  Pass 1  IDiag  1:
 RMSU=  4.06D-09    CP:  9.97D-01  2.79D-01  5.09D-01  6.96D-01  6.71D-01
                    CP:  7.89D-01  7.46D-01  8.50D-01  8.15D-01  7.53D-01
                    CP:  7.85D-01  8.59D-01  8.56D-01  8.56D-01
 E= -4644.99808251245     Delta-E=        0.000000000089 Rises=F Damp=F
 DIIS: error= 5.48D-08 at cycle  15 NSaved=  15.
 NSaved=15 IEnMin=14 EnMin= -4644.99808251254     IErMin=15 ErrMin= 5.48D-08
 ErrMax= 5.48D-08  0.00D+00 EMaxC= 1.00D-01 BMatC= 8.90D-12 BMatP= 5.38D-11
 IDIUse=1 WtCom= 1.00D+00 WtEn= 0.00D+00
 Coeff-Com:  0.424D-06 0.960D-07 0.282D-05 0.563D-05-0.730D-05-0.777D-04
 Coeff-Com: -0.234D-03-0.116D-02-0.338D-02-0.669D-02-0.647D-02 0.189D-01
 Coeff-Com:  0.155D+00 0.351D+00 0.493D+00
 Coeff:      0.424D-06 0.960D-07 0.282D-05 0.563D-05-0.730D-05-0.777D-04
 Coeff:     -0.234D-03-0.116D-02-0.338D-02-0.669D-02-0.647D-02 0.189D-01
 Coeff:      0.155D+00 0.351D+00 0.493D+00
 Gap=     0.132 Goal=   None    Shift=    0.000
 RMSDP=2.16D-09 MaxDP=5.75D-07 DE= 8.91D-11 OVMax= 6.52D-07

 Error on total polarization charges =  0.07826
 SCF Done:  E(RB3LYP) =  -4644.99808251     A.U. after   15 cycles
            NFock= 15  Conv=0.22D-08     -V/T= 2.0457
 KE= 4.441799829895D+03 PE=-4.216264337306D+04 EE= 1.740892785670D+04
 SMD-CDS (non-electrostatic) energy       (kcal/mol) =     -13.85
 (included in total energy above)
 Leave Link  502 at Tue Jun 11 19:31:09 2024, MaxMem=  8589934592 cpu:          182119.9 elap:            5741.8
 (Enter /opt/packages/gaussian/g16RevC.01/g16/l601.exe)
 Copying SCF densities to generalized density rwf, IOpCl= 0 IROHF=0.
 Hyperfine terms turned off by default for NAtoms > 100.

 **********************************************************************

            Population analysis using the SCF Density.

 **********************************************************************

 Alpha  occ. eigenvalues --  -89.04523 -89.04367 -24.72042 -24.71732 -24.71664
 Alpha  occ. eigenvalues --  -24.71550 -24.71297 -24.71061 -24.70169 -19.13806
 Alpha  occ. eigenvalues --  -19.10881 -19.10678 -19.10646 -19.10573 -14.37826
 Alpha  occ. eigenvalues --  -14.32597 -14.31602 -10.42749 -10.42333 -10.27922
 Alpha  occ. eigenvalues --  -10.26719 -10.26022 -10.22568 -10.22296 -10.22237
 Alpha  occ. eigenvalues --  -10.22184 -10.22052 -10.22048 -10.21881 -10.21715
 Alpha  occ. eigenvalues --  -10.21708 -10.21465 -10.21408 -10.21382 -10.21321
 Alpha  occ. eigenvalues --  -10.21139 -10.20695 -10.20667 -10.20168 -10.20083
 Alpha  occ. eigenvalues --  -10.19969 -10.19937 -10.19723 -10.19711 -10.19675
 Alpha  occ. eigenvalues --  -10.19464 -10.19326 -10.19313 -10.19217 -10.19157
 Alpha  occ. eigenvalues --  -10.19054 -10.18808 -10.18740 -10.18686 -10.18671
 Alpha  occ. eigenvalues --  -10.18547 -10.18441 -10.18325 -10.18321 -10.18292
 Alpha  occ. eigenvalues --  -10.18279 -10.18264 -10.18252 -10.18236 -10.18214
 Alpha  occ. eigenvalues --  -10.18203 -10.18184 -10.18036 -10.17976 -10.17688
 Alpha  occ. eigenvalues --  -10.17491 -10.17091 -10.16982 -10.16841 -10.16679
 Alpha  occ. eigenvalues --  -10.16464 -10.16406  -8.09099  -8.08958  -6.83178
 Alpha  occ. eigenvalues --   -6.05430  -6.05321  -6.05301  -6.05290  -6.05176
 Alpha  occ. eigenvalues --   -6.05138  -4.85712  -4.84413  -4.84390  -1.90507
 Alpha  occ. eigenvalues --   -1.90100  -1.90073  -1.88967  -1.88966  -1.32727
 Alpha  occ. eigenvalues --   -1.32347  -1.24192  -1.23707  -1.23341  -1.23329
 Alpha  occ. eigenvalues --   -1.22915  -1.12822  -1.11393  -1.05838  -1.00907
 Alpha  occ. eigenvalues --   -1.00631  -1.00538  -0.95012  -0.91204  -0.89755
 Alpha  occ. eigenvalues --   -0.88799  -0.88668  -0.88248  -0.87763  -0.84834
 Alpha  occ. eigenvalues --   -0.84661  -0.84401  -0.83991  -0.82153  -0.80615
 Alpha  occ. eigenvalues --   -0.79991  -0.79517  -0.78961  -0.78836  -0.78483
 Alpha  occ. eigenvalues --   -0.77949  -0.77582  -0.76943  -0.76797  -0.75735
 Alpha  occ. eigenvalues --   -0.75232  -0.74921  -0.73872  -0.73554  -0.72851
 Alpha  occ. eigenvalues --   -0.72498  -0.72177  -0.71250  -0.70892  -0.70481
 Alpha  occ. eigenvalues --   -0.68419  -0.68338  -0.67196  -0.66802  -0.65487
 Alpha  occ. eigenvalues --   -0.65113  -0.64870  -0.63947  -0.63575  -0.63475
 Alpha  occ. eigenvalues --   -0.63357  -0.62980  -0.62579  -0.62506  -0.62062
 Alpha  occ. eigenvalues --   -0.60518  -0.60351  -0.59997  -0.59952  -0.59615
 Alpha  occ. eigenvalues --   -0.59460  -0.58660  -0.58501  -0.58259  -0.58017
 Alpha  occ. eigenvalues --   -0.57681  -0.57404  -0.55494  -0.55409  -0.55096
 Alpha  occ. eigenvalues --   -0.54081  -0.53471  -0.53138  -0.53027  -0.52288
 Alpha  occ. eigenvalues --   -0.51968  -0.51539  -0.51234  -0.50632  -0.50131
 Alpha  occ. eigenvalues --   -0.49920  -0.49588  -0.49147  -0.48954  -0.48752
 Alpha  occ. eigenvalues --   -0.48629  -0.48438  -0.48212  -0.48209  -0.47858
 Alpha  occ. eigenvalues --   -0.47840  -0.47610  -0.47446  -0.47269  -0.47180
 Alpha  occ. eigenvalues --   -0.47112  -0.46883  -0.46400  -0.46287  -0.45919
 Alpha  occ. eigenvalues --   -0.45745  -0.45411  -0.45269  -0.45163  -0.45095
 Alpha  occ. eigenvalues --   -0.44972  -0.44843  -0.44662  -0.44464  -0.44448
 Alpha  occ. eigenvalues --   -0.44112  -0.44024  -0.43746  -0.43465  -0.43331
 Alpha  occ. eigenvalues --   -0.43180  -0.42843  -0.42768  -0.42213  -0.42043
 Alpha  occ. eigenvalues --   -0.41890  -0.41754  -0.41618  -0.41545  -0.41353
 Alpha  occ. eigenvalues --   -0.40959  -0.40904  -0.40820  -0.40642  -0.40515
 Alpha  occ. eigenvalues --   -0.40361  -0.39764  -0.39427  -0.39376  -0.39306
 Alpha  occ. eigenvalues --   -0.38776  -0.37861  -0.37787  -0.37546  -0.37279
 Alpha  occ. eigenvalues --   -0.37249  -0.36888  -0.36823  -0.36815  -0.36635
 Alpha  occ. eigenvalues --   -0.36574  -0.36392  -0.36278  -0.36247  -0.35996
 Alpha  occ. eigenvalues --   -0.35771  -0.35407  -0.35293  -0.35152  -0.34441
 Alpha  occ. eigenvalues --   -0.34353  -0.33998  -0.33648  -0.33498  -0.33359
 Alpha  occ. eigenvalues --   -0.32606  -0.32518  -0.32349  -0.31721  -0.31362
 Alpha  occ. eigenvalues --   -0.30710  -0.30551  -0.29441  -0.29208  -0.29123
 Alpha  occ. eigenvalues --   -0.28844  -0.28406  -0.28127  -0.27985  -0.27729
 Alpha  occ. eigenvalues --   -0.27485  -0.27233  -0.26693  -0.26195  -0.25959
 Alpha  occ. eigenvalues --   -0.25805  -0.25110  -0.24967  -0.24613  -0.24493
 Alpha  occ. eigenvalues --   -0.24001  -0.23399  -0.22659  -0.22308  -0.21783
 Alpha virt. eigenvalues --   -0.08539  -0.07382  -0.07195  -0.06255  -0.05612
 Alpha virt. eigenvalues --   -0.04309  -0.03854  -0.03382  -0.03233  -0.03155
 Alpha virt. eigenvalues --   -0.02322  -0.02142  -0.00830  -0.00652   0.00050
 Alpha virt. eigenvalues --    0.00621   0.01101   0.03022   0.03759   0.04309
 Alpha virt. eigenvalues --    0.04527   0.04848   0.05012   0.05039   0.05445
 Alpha virt. eigenvalues --    0.05545   0.05792   0.05886   0.06047   0.06578
 Alpha virt. eigenvalues --    0.06619   0.06876   0.07015   0.07244   0.07427
 Alpha virt. eigenvalues --    0.07495   0.07734   0.08002   0.08156   0.08282
 Alpha virt. eigenvalues --    0.08502   0.08648   0.09002   0.09229   0.09372
 Alpha virt. eigenvalues --    0.09416   0.09626   0.09921   0.09988   0.10086
 Alpha virt. eigenvalues --    0.10232   0.10298   0.10624   0.10837   0.10903
 Alpha virt. eigenvalues --    0.11189   0.11291   0.11436   0.11596   0.11777
 Alpha virt. eigenvalues --    0.11881   0.12111   0.12292   0.12459   0.12546
 Alpha virt. eigenvalues --    0.12772   0.12882   0.13090   0.13114   0.13243
 Alpha virt. eigenvalues --    0.13525   0.13601   0.13956   0.14029   0.14082
 Alpha virt. eigenvalues --    0.14167   0.14408   0.14560   0.14668   0.14910
 Alpha virt. eigenvalues --    0.15022   0.15227   0.15340   0.15425   0.15753
 Alpha virt. eigenvalues --    0.15954   0.15986   0.16383   0.16450   0.16609
 Alpha virt. eigenvalues --    0.16849   0.17160   0.17347   0.17452   0.17636
 Alpha virt. eigenvalues --    0.17921   0.17993   0.18171   0.18342   0.18507
 Alpha virt. eigenvalues --    0.18772   0.18910   0.19064   0.19236   0.19423
 Alpha virt. eigenvalues --    0.19581   0.19720   0.19824   0.19971   0.20154
 Alpha virt. eigenvalues --    0.20480   0.20509   0.20668   0.20870   0.20945
 Alpha virt. eigenvalues --    0.20984   0.21055   0.21269   0.21304   0.21433
 Alpha virt. eigenvalues --    0.21629   0.21693   0.22052   0.22269   0.22318
 Alpha virt. eigenvalues --    0.22531   0.22691   0.22846   0.22907   0.23029
 Alpha virt. eigenvalues --    0.23214   0.23258   0.23435   0.23514   0.23753
 Alpha virt. eigenvalues --    0.23887   0.24028   0.24149   0.24373   0.24484
 Alpha virt. eigenvalues --    0.24631   0.24686   0.24921   0.24987   0.25058
 Alpha virt. eigenvalues --    0.25161   0.25503   0.25671   0.25733   0.25898
 Alpha virt. eigenvalues --    0.25926   0.26104   0.26268   0.26551   0.26625
 Alpha virt. eigenvalues --    0.27055   0.27107   0.27196   0.27404   0.27558
 Alpha virt. eigenvalues --    0.27828   0.27875   0.28034   0.28266   0.28418
 Alpha virt. eigenvalues --    0.28491   0.28603   0.28657   0.28773   0.28820
 Alpha virt. eigenvalues --    0.29094   0.29281   0.29334   0.29636   0.29852
 Alpha virt. eigenvalues --    0.30000   0.30105   0.30202   0.30323   0.30621
 Alpha virt. eigenvalues --    0.30891   0.31006   0.31108   0.31178   0.31233
 Alpha virt. eigenvalues --    0.31457   0.31599   0.31801   0.31942   0.32186
 Alpha virt. eigenvalues --    0.32359   0.32490   0.32559   0.33004   0.33077
 Alpha virt. eigenvalues --    0.33150   0.33187   0.33248   0.33486   0.33582
 Alpha virt. eigenvalues --    0.33878   0.33965   0.34098   0.34117   0.34479
 Alpha virt. eigenvalues --    0.34542   0.34671   0.34775   0.34872   0.35013
 Alpha virt. eigenvalues --    0.35129   0.35276   0.35774   0.35824   0.35901
 Alpha virt. eigenvalues --    0.36011   0.36165   0.36324   0.36425   0.36606
 Alpha virt. eigenvalues --    0.36699   0.36763   0.37087   0.37273   0.37469
 Alpha virt. eigenvalues --    0.37544   0.37713   0.37806   0.37909   0.38007
 Alpha virt. eigenvalues --    0.38084   0.38096   0.38377   0.38592   0.38748
 Alpha virt. eigenvalues --    0.38920   0.39167   0.39272   0.39397   0.39642
 Alpha virt. eigenvalues --    0.39761   0.39862   0.39941   0.40072   0.40160
 Alpha virt. eigenvalues --    0.40325   0.40539   0.40683   0.40848   0.40884
 Alpha virt. eigenvalues --    0.41064   0.41333   0.41388   0.41638   0.41725
 Alpha virt. eigenvalues --    0.41800   0.41966   0.42263   0.42386   0.42490
 Alpha virt. eigenvalues --    0.42512   0.42717   0.42827   0.42932   0.43115
 Alpha virt. eigenvalues --    0.43176   0.43273   0.43382   0.43663   0.43715
 Alpha virt. eigenvalues --    0.43789   0.43903   0.44025   0.44078   0.44249
 Alpha virt. eigenvalues --    0.44514   0.44577   0.44593   0.44727   0.44824
 Alpha virt. eigenvalues --    0.45251   0.45341   0.45488   0.45711   0.45802
 Alpha virt. eigenvalues --    0.45994   0.46198   0.46346   0.46560   0.46602
 Alpha virt. eigenvalues --    0.46732   0.47047   0.47163   0.47344   0.47448
 Alpha virt. eigenvalues --    0.47526   0.47614   0.47759   0.48146   0.48199
 Alpha virt. eigenvalues --    0.48467   0.48510   0.48671   0.48795   0.48855
 Alpha virt. eigenvalues --    0.49169   0.49274   0.49361   0.49407   0.49639
 Alpha virt. eigenvalues --    0.49871   0.49929   0.50087   0.50136   0.50412
 Alpha virt. eigenvalues --    0.50508   0.50781   0.50909   0.50998   0.51101
 Alpha virt. eigenvalues --    0.51270   0.51645   0.51672   0.51774   0.51910
 Alpha virt. eigenvalues --    0.51957   0.52344   0.52413   0.52779   0.52951
 Alpha virt. eigenvalues --    0.53222   0.53475   0.53643   0.53769   0.53860
 Alpha virt. eigenvalues --    0.53920   0.54234   0.54348   0.54412   0.54781
 Alpha virt. eigenvalues --    0.55013   0.55163   0.55377   0.55514   0.55677
 Alpha virt. eigenvalues --    0.55776   0.56086   0.56261   0.56555   0.56813
 Alpha virt. eigenvalues --    0.57008   0.57387   0.57616   0.57663   0.57714
 Alpha virt. eigenvalues --    0.57998   0.58084   0.58331   0.58525   0.58636
 Alpha virt. eigenvalues --    0.58807   0.59131   0.59333   0.59432   0.59761
 Alpha virt. eigenvalues --    0.59914   0.60170   0.60431   0.60657   0.60771
 Alpha virt. eigenvalues --    0.60952   0.61003   0.61442   0.61602   0.61782
 Alpha virt. eigenvalues --    0.61858   0.62105   0.62283   0.62338   0.62400
 Alpha virt. eigenvalues --    0.62803   0.62992   0.63079   0.63241   0.63401
 Alpha virt. eigenvalues --    0.63717   0.63884   0.63966   0.64257   0.64363
 Alpha virt. eigenvalues --    0.64490   0.64563   0.64824   0.65004   0.65199
 Alpha virt. eigenvalues --    0.65261   0.65428   0.65627   0.65723   0.65892
 Alpha virt. eigenvalues --    0.65969   0.66054   0.66221   0.66362   0.66547
 Alpha virt. eigenvalues --    0.66772   0.66989   0.67300   0.67358   0.67401
 Alpha virt. eigenvalues --    0.67569   0.67770   0.67893   0.68026   0.68100
 Alpha virt. eigenvalues --    0.68164   0.68415   0.68455   0.68595   0.68882
 Alpha virt. eigenvalues --    0.69008   0.69158   0.69285   0.69376   0.69460
 Alpha virt. eigenvalues --    0.69632   0.69925   0.69999   0.70225   0.70453
 Alpha virt. eigenvalues --    0.70643   0.70872   0.70960   0.71077   0.71286
 Alpha virt. eigenvalues --    0.71325   0.71477   0.71591   0.71807   0.71961
 Alpha virt. eigenvalues --    0.72211   0.72404   0.72466   0.72664   0.73134
 Alpha virt. eigenvalues --    0.73222   0.73275   0.73363   0.73482   0.73721
 Alpha virt. eigenvalues --    0.73848   0.74273   0.74402   0.74415   0.74719
 Alpha virt. eigenvalues --    0.74826   0.75049   0.75180   0.75274   0.75400
 Alpha virt. eigenvalues --    0.75849   0.75866   0.76085   0.76228   0.76391
 Alpha virt. eigenvalues --    0.76594   0.76821   0.76869   0.77215   0.77415
 Alpha virt. eigenvalues --    0.77562   0.77629   0.77863   0.78007   0.78119
 Alpha virt. eigenvalues --    0.78164   0.78674   0.78807   0.78879   0.79085
 Alpha virt. eigenvalues --    0.79364   0.79565   0.79651   0.79732   0.80015
 Alpha virt. eigenvalues --    0.80192   0.80431   0.80580   0.80721   0.80788
 Alpha virt. eigenvalues --    0.81120   0.81234   0.81372   0.81577   0.81718
 Alpha virt. eigenvalues --    0.81880   0.81968   0.82232   0.82472   0.82558
 Alpha virt. eigenvalues --    0.82799   0.83106   0.83267   0.83316   0.83449
 Alpha virt. eigenvalues --    0.83783   0.83888   0.84162   0.84319   0.84415
 Alpha virt. eigenvalues --    0.84551   0.84706   0.84923   0.84986   0.85190
 Alpha virt. eigenvalues --    0.85375   0.85542   0.85925   0.86169   0.86322
 Alpha virt. eigenvalues --    0.86363   0.86499   0.86799   0.86881   0.86977
 Alpha virt. eigenvalues --    0.87233   0.87447   0.87715   0.87839   0.87919
 Alpha virt. eigenvalues --    0.88050   0.88411   0.88675   0.88751   0.89080
 Alpha virt. eigenvalues --    0.89247   0.89272   0.89576   0.89666   0.89800
 Alpha virt. eigenvalues --    0.89965   0.90130   0.90409   0.90666   0.90852
 Alpha virt. eigenvalues --    0.91099   0.91180   0.91295   0.91484   0.91597
 Alpha virt. eigenvalues --    0.91629   0.91872   0.92036   0.92237   0.92383
 Alpha virt. eigenvalues --    0.92468   0.92678   0.92943   0.93243   0.93386
 Alpha virt. eigenvalues --    0.93487   0.93768   0.93793   0.94064   0.94542
 Alpha virt. eigenvalues --    0.94746   0.94795   0.94931   0.95277   0.95381
 Alpha virt. eigenvalues --    0.95507   0.95736   0.95881   0.96105   0.96252
 Alpha virt. eigenvalues --    0.96306   0.96649   0.96732   0.96887   0.96964
 Alpha virt. eigenvalues --    0.97174   0.97321   0.97397   0.97835   0.97923
 Alpha virt. eigenvalues --    0.98055   0.98236   0.98389   0.98493   0.98817
 Alpha virt. eigenvalues --    0.98918   0.99402   0.99479   0.99776   1.00030
 Alpha virt. eigenvalues --    1.00070   1.00483   1.00643   1.00731   1.00771
 Alpha virt. eigenvalues --    1.01181   1.01370   1.01503   1.01641   1.01803
 Alpha virt. eigenvalues --    1.01843   1.01972   1.02510   1.02715   1.02936
 Alpha virt. eigenvalues --    1.03170   1.03294   1.03540   1.03691   1.04098
 Alpha virt. eigenvalues --    1.04207   1.04373   1.04535   1.04899   1.04980
 Alpha virt. eigenvalues --    1.05153   1.05419   1.05608   1.05669   1.05905
 Alpha virt. eigenvalues --    1.06022   1.06219   1.06441   1.06813   1.06893
 Alpha virt. eigenvalues --    1.06937   1.07196   1.07378   1.07666   1.07721
 Alpha virt. eigenvalues --    1.08154   1.08254   1.08384   1.08553   1.08690
 Alpha virt. eigenvalues --    1.08746   1.08944   1.09354   1.09415   1.09556
 Alpha virt. eigenvalues --    1.09638   1.09817   1.10196   1.10284   1.10409
 Alpha virt. eigenvalues --    1.10703   1.10958   1.11209   1.11274   1.11485
 Alpha virt. eigenvalues --    1.11832   1.12120   1.12299   1.12367   1.12507
 Alpha virt. eigenvalues --    1.12865   1.13110   1.13444   1.13536   1.13616
 Alpha virt. eigenvalues --    1.13893   1.14045   1.14165   1.14341   1.14665
 Alpha virt. eigenvalues --    1.14788   1.14932   1.14957   1.15181   1.15192
 Alpha virt. eigenvalues --    1.15375   1.15598   1.15766   1.15936   1.16270
 Alpha virt. eigenvalues --    1.16307   1.16657   1.16965   1.17139   1.17338
 Alpha virt. eigenvalues --    1.17469   1.17658   1.17857   1.18179   1.18314
 Alpha virt. eigenvalues --    1.18395   1.18680   1.18860   1.18943   1.19260
 Alpha virt. eigenvalues --    1.19516   1.19673   1.19921   1.20202   1.20381
 Alpha virt. eigenvalues --    1.20828   1.21056   1.21190   1.21285   1.21449
 Alpha virt. eigenvalues --    1.21661   1.22007   1.22079   1.22340   1.22480
 Alpha virt. eigenvalues --    1.22626   1.22922   1.23167   1.23295   1.23593
 Alpha virt. eigenvalues --    1.23621   1.23971   1.24054   1.24127   1.24602
 Alpha virt. eigenvalues --    1.24761   1.24968   1.25088   1.25202   1.25450
 Alpha virt. eigenvalues --    1.25573   1.25949   1.26341   1.26447   1.26697
 Alpha virt. eigenvalues --    1.27049   1.27189   1.27427   1.27503   1.27769
 Alpha virt. eigenvalues --    1.27912   1.28082   1.28192   1.28342   1.28495
 Alpha virt. eigenvalues --    1.28692   1.28966   1.29139   1.29242   1.29470
 Alpha virt. eigenvalues --    1.29690   1.29884   1.30091   1.30284   1.30476
 Alpha virt. eigenvalues --    1.30548   1.30657   1.30938   1.31271   1.31391
 Alpha virt. eigenvalues --    1.31537   1.31809   1.31878   1.31952   1.32147
 Alpha virt. eigenvalues --    1.32245   1.32433   1.32727   1.32888   1.33029
 Alpha virt. eigenvalues --    1.33261   1.33331   1.33773   1.33815   1.33969
 Alpha virt. eigenvalues --    1.34150   1.34349   1.34480   1.34667   1.34890
 Alpha virt. eigenvalues --    1.34923   1.35112   1.35208   1.35376   1.35792
 Alpha virt. eigenvalues --    1.35980   1.36040   1.36180   1.36378   1.36565
 Alpha virt. eigenvalues --    1.36728   1.36878   1.37055   1.37310   1.37586
 Alpha virt. eigenvalues --    1.37734   1.37968   1.38142   1.38288   1.38698
 Alpha virt. eigenvalues --    1.38734   1.39020   1.39042   1.39397   1.39593
 Alpha virt. eigenvalues --    1.39803   1.40142   1.40361   1.40571   1.40738
 Alpha virt. eigenvalues --    1.40861   1.40965   1.41119   1.41344   1.41428
 Alpha virt. eigenvalues --    1.41543   1.41744   1.42028   1.42134   1.42614
 Alpha virt. eigenvalues --    1.42695   1.43030   1.43274   1.43311   1.43584
 Alpha virt. eigenvalues --    1.43808   1.44039   1.44274   1.44329   1.44433
 Alpha virt. eigenvalues --    1.44827   1.44985   1.45036   1.45261   1.45751
 Alpha virt. eigenvalues --    1.45878   1.46052   1.46577   1.46631   1.46917
 Alpha virt. eigenvalues --    1.47163   1.47423   1.47473   1.47728   1.47879
 Alpha virt. eigenvalues --    1.48076   1.48425   1.48614   1.48893   1.48996
 Alpha virt. eigenvalues --    1.49097   1.49208   1.49552   1.49633   1.50139
 Alpha virt. eigenvalues --    1.50396   1.50560   1.50838   1.51103   1.51235
 Alpha virt. eigenvalues --    1.51328   1.51730   1.51983   1.52073   1.52226
 Alpha virt. eigenvalues --    1.52408   1.52879   1.52984   1.53491   1.53576
 Alpha virt. eigenvalues --    1.53667   1.53801   1.54170   1.54303   1.54614
 Alpha virt. eigenvalues --    1.54705   1.54924   1.55194   1.55377   1.55473
 Alpha virt. eigenvalues --    1.55847   1.56057   1.56362   1.56545   1.56721
 Alpha virt. eigenvalues --    1.56796   1.56981   1.57223   1.57373   1.57863
 Alpha virt. eigenvalues --    1.57897   1.58231   1.58506   1.58544   1.58750
 Alpha virt. eigenvalues --    1.58965   1.59175   1.59282   1.59434   1.59773
 Alpha virt. eigenvalues --    1.59935   1.60450   1.60696   1.60778   1.61050
 Alpha virt. eigenvalues --    1.61509   1.61568   1.61753   1.61911   1.61999
 Alpha virt. eigenvalues --    1.62443   1.62664   1.62850   1.62929   1.63328
 Alpha virt. eigenvalues --    1.63574   1.63667   1.64136   1.64196   1.64602
 Alpha virt. eigenvalues --    1.64726   1.64792   1.64934   1.65116   1.65417
 Alpha virt. eigenvalues --    1.65690   1.65808   1.66059   1.66276   1.66669
 Alpha virt. eigenvalues --    1.66822   1.66955   1.67040   1.67127   1.67420
 Alpha virt. eigenvalues --    1.67588   1.68164   1.68205   1.68225   1.68382
 Alpha virt. eigenvalues --    1.68484   1.68927   1.69040   1.69394   1.69663
 Alpha virt. eigenvalues --    1.69815   1.70161   1.70372   1.70507   1.70913
 Alpha virt. eigenvalues --    1.71034   1.71199   1.71402   1.71628   1.71961
 Alpha virt. eigenvalues --    1.72225   1.72335   1.72670   1.72830   1.73051
 Alpha virt. eigenvalues --    1.73411   1.73572   1.73800   1.73983   1.74111
 Alpha virt. eigenvalues --    1.74300   1.74618   1.74768   1.74807   1.75234
 Alpha virt. eigenvalues --    1.75603   1.75728   1.75832   1.76075   1.76292
 Alpha virt. eigenvalues --    1.76408   1.76822   1.77321   1.77389   1.77469
 Alpha virt. eigenvalues --    1.77628   1.78020   1.78091   1.78348   1.78522
 Alpha virt. eigenvalues --    1.78911   1.79158   1.79517   1.79723   1.80171
 Alpha virt. eigenvalues --    1.80310   1.80533   1.80824   1.81142   1.81387
 Alpha virt. eigenvalues --    1.81507   1.81818   1.81979   1.82255   1.82835
 Alpha virt. eigenvalues --    1.83004   1.83098   1.83265   1.83332   1.83707
 Alpha virt. eigenvalues --    1.83816   1.84198   1.84615   1.84918   1.85141
 Alpha virt. eigenvalues --    1.85461   1.85604   1.85886   1.86042   1.86313
 Alpha virt. eigenvalues --    1.86458   1.86576   1.86983   1.87144   1.87354
 Alpha virt. eigenvalues --    1.87526   1.87836   1.88790   1.88919   1.89444
 Alpha virt. eigenvalues --    1.89593   1.90146   1.90412   1.90685   1.91045
 Alpha virt. eigenvalues --    1.91248   1.91306   1.91485   1.91881   1.92064
 Alpha virt. eigenvalues --    1.92362   1.92753   1.93031   1.93367   1.93561
 Alpha virt. eigenvalues --    1.93677   1.93961   1.94287   1.94595   1.95216
 Alpha virt. eigenvalues --    1.95330   1.95651   1.95933   1.96303   1.96532
 Alpha virt. eigenvalues --    1.96977   1.97066   1.97186   1.97319   1.97663
 Alpha virt. eigenvalues --    1.98085   1.98225   1.98467   1.98724   1.99106
 Alpha virt. eigenvalues --    1.99211   1.99447   1.99679   1.99871   2.00474
 Alpha virt. eigenvalues --    2.00684   2.00976   2.01084   2.01288   2.01747
 Alpha virt. eigenvalues --    2.02106   2.02381   2.02760   2.03040   2.03102
 Alpha virt. eigenvalues --    2.03279   2.03975   2.04235   2.04505   2.04887
 Alpha virt. eigenvalues --    2.05133   2.05206   2.05628   2.05807   2.06061
 Alpha virt. eigenvalues --    2.06158   2.06430   2.06584   2.06738   2.06850
 Alpha virt. eigenvalues --    2.07207   2.07685   2.07764   2.08139   2.08202
 Alpha virt. eigenvalues --    2.08317   2.08730   2.08993   2.09113   2.09480
 Alpha virt. eigenvalues --    2.09801   2.10004   2.10282   2.10481   2.10612
 Alpha virt. eigenvalues --    2.10888   2.11104   2.11431   2.11613   2.11836
 Alpha virt. eigenvalues --    2.12073   2.12295   2.12398   2.12716   2.12971
 Alpha virt. eigenvalues --    2.13212   2.13556   2.13829   2.14061   2.14284
 Alpha virt. eigenvalues --    2.14520   2.14545   2.14901   2.15345   2.15522
 Alpha virt. eigenvalues --    2.16034   2.16373   2.16602   2.16756   2.17378
 Alpha virt. eigenvalues --    2.17644   2.17906   2.18051   2.18468   2.18829
 Alpha virt. eigenvalues --    2.19224   2.19473   2.19587   2.19877   2.20013
 Alpha virt. eigenvalues --    2.20609   2.21005   2.21367   2.21533   2.21975
 Alpha virt. eigenvalues --    2.22178   2.22274   2.22991   2.23578   2.23645
 Alpha virt. eigenvalues --    2.24106   2.24638   2.24762   2.24922   2.25327
 Alpha virt. eigenvalues --    2.25393   2.25683   2.26110   2.26235   2.26395
 Alpha virt. eigenvalues --    2.26744   2.27223   2.27376   2.27869   2.28523
 Alpha virt. eigenvalues --    2.28633   2.28774   2.28988   2.29288   2.29638
 Alpha virt. eigenvalues --    2.30138   2.30582   2.30825   2.31285   2.31492
 Alpha virt. eigenvalues --    2.31906   2.32158   2.32453   2.32907   2.33166
 Alpha virt. eigenvalues --    2.33314   2.33562   2.33638   2.33869   2.33965
 Alpha virt. eigenvalues --    2.34386   2.34844   2.35030   2.35127   2.35561
 Alpha virt. eigenvalues --    2.35683   2.35944   2.36549   2.37111   2.37182
 Alpha virt. eigenvalues --    2.37326   2.37406   2.37830   2.38062   2.38472
 Alpha virt. eigenvalues --    2.38638   2.38697   2.39035   2.39223   2.39420
 Alpha virt. eigenvalues --    2.39558   2.39662   2.40024   2.40276   2.40361
 Alpha virt. eigenvalues --    2.40573   2.40924   2.40989   2.41307   2.41510
 Alpha virt. eigenvalues --    2.41610   2.42032   2.42385   2.42752   2.43093
 Alpha virt. eigenvalues --    2.43102   2.43981   2.44257   2.44376   2.44634
 Alpha virt. eigenvalues --    2.45060   2.45429   2.45858   2.46199   2.46691
 Alpha virt. eigenvalues --    2.47291   2.47396   2.47506   2.47808   2.48196
 Alpha virt. eigenvalues --    2.48868   2.49440   2.49618   2.50213   2.50574
 Alpha virt. eigenvalues --    2.51013   2.51296   2.51509   2.51862   2.52314
 Alpha virt. eigenvalues --    2.52682   2.53029   2.53661   2.53822   2.54083
 Alpha virt. eigenvalues --    2.54449   2.54981   2.55238   2.55445   2.55530
 Alpha virt. eigenvalues --    2.56123   2.56328   2.56941   2.57039   2.57215
 Alpha virt. eigenvalues --    2.57672   2.58129   2.58183   2.58461   2.58930
 Alpha virt. eigenvalues --    2.59050   2.59831   2.60151   2.60354   2.60732
 Alpha virt. eigenvalues --    2.60817   2.61070   2.61224   2.61379   2.61666
 Alpha virt. eigenvalues --    2.62057   2.62362   2.62449   2.62797   2.62989
 Alpha virt. eigenvalues --    2.63534   2.63808   2.63971   2.64297   2.64496
 Alpha virt. eigenvalues --    2.64848   2.64986   2.65414   2.65950   2.66464
 Alpha virt. eigenvalues --    2.66531   2.66688   2.66864   2.67086   2.67580
 Alpha virt. eigenvalues --    2.67902   2.68091   2.68410   2.68783   2.68814
 Alpha virt. eigenvalues --    2.69243   2.69249   2.69700   2.70032   2.70187
 Alpha virt. eigenvalues --    2.70555   2.70797   2.71230   2.71487   2.71787
 Alpha virt. eigenvalues --    2.71933   2.72139   2.72225   2.72368   2.72549
 Alpha virt. eigenvalues --    2.72783   2.73139   2.73247   2.73387   2.73483
 Alpha virt. eigenvalues --    2.73749   2.74012   2.74265   2.74299   2.74864
 Alpha virt. eigenvalues --    2.74893   2.75254   2.75325   2.75854   2.75984
 Alpha virt. eigenvalues --    2.76450   2.76569   2.76840   2.77063   2.77151
 Alpha virt. eigenvalues --    2.77493   2.77576   2.77805   2.77844   2.78093
[...]
 Alpha virt. eigenvalues --    4.50784   4.51460   4.51820   4.52030   4.52519
 Alpha virt. eigenvalues --    4.52739   4.53531   4.53834   4.54428   4.55332
 Alpha virt. eigenvalues --    4.55529   4.55696   4.55919   4.56506   4.56775
 Alpha virt. eigenvalues --    4.56885   4.57705   4.58014   4.58480   4.58724
 Alpha virt. eigenvalues --    4.59094   4.59878   4.60171   4.60355   4.60677
 Alpha virt. eigenvalues --    4.61550   4.61971   4.62157   4.63192   4.63327
 Alpha virt. eigenvalues --    4.63686   4.64155   4.64585   4.64887   4.64978
 Alpha virt. eigenvalues --    4.65230   4.65468   4.65575   4.65655   4.66008
 Alpha virt. eigenvalues --    4.66119   4.66488   4.66844   4.67264   4.67456
 Alpha virt. eigenvalues --    4.67886   4.68248   4.68266   4.68711   4.69043
 Alpha virt. eigenvalues --    4.69243   4.69898   4.70238   4.70790   4.70914
 Alpha virt. eigenvalues --    4.71143   4.71256   4.71343   4.71714   4.72438
 Alpha virt. eigenvalues --    4.72673   4.72765   4.73295   4.73762   4.73975
 Alpha virt. eigenvalues --    4.74125   4.74765   4.75025   4.75234   4.75499
 Alpha virt. eigenvalues --    4.75776   4.76133   4.76185   4.76539   4.76960
 Alpha virt. eigenvalues --    4.77302   4.77598   4.77721   4.78001   4.78678
 Alpha virt. eigenvalues --    4.78962   4.79236   4.79871   4.79890   4.80354
 Alpha virt. eigenvalues --    4.80473   4.80621   4.80871   4.81117   4.81742
 Alpha virt. eigenvalues --    4.82242   4.82806   4.83200   4.83780   4.84369
 Alpha virt. eigenvalues --    4.84621   4.84909   4.85540   4.86068   4.86306
 Alpha virt. eigenvalues --    4.86705   4.86988   4.87708   4.87847   4.88720
 Alpha virt. eigenvalues --    4.89342   4.89513   4.89958   4.90416   4.90864
 Alpha virt. eigenvalues --    4.91111   4.91645   4.91968   4.92322   4.92490
 Alpha virt. eigenvalues --    4.92708   4.92823   4.92966   4.94020   4.94246
 Alpha virt. eigenvalues --    4.94329   4.95178   4.95429   4.96085   4.96485
 Alpha virt. eigenvalues --    4.98191   4.98813   4.99023   5.00055   5.00290
 Alpha virt. eigenvalues --    5.00891   5.01089   5.01297   5.01847   5.02129
 Alpha virt. eigenvalues --    5.02262   5.02482   5.03420   5.04396   5.04464
 Alpha virt. eigenvalues --    5.04818   5.04955   5.05148   5.05672   5.05803
 Alpha virt. eigenvalues --    5.06203   5.06711   5.07169   5.07927   5.08722
 Alpha virt. eigenvalues --    5.09188   5.09645   5.10277   5.10438   5.11197
 Alpha virt. eigenvalues --    5.11481   5.11651   5.12043   5.12371   5.12884
 Alpha virt. eigenvalues --    5.13479   5.13643   5.13909   5.14276   5.14873
 Alpha virt. eigenvalues --    5.14935   5.15221   5.16036   5.16139   5.16379
 Alpha virt. eigenvalues --    5.16777   5.17075   5.17505   5.18111   5.18236
 Alpha virt. eigenvalues --    5.18931   5.19249   5.19422   5.19827   5.19940
 Alpha virt. eigenvalues --    5.20101   5.20420   5.20565   5.20817   5.21450
 Alpha virt. eigenvalues --    5.21541   5.21613   5.22491   5.22639   5.22887
 Alpha virt. eigenvalues --    5.23297   5.23528   5.23621   5.24318   5.24602
 Alpha virt. eigenvalues --    5.24779   5.24933   5.25068   5.25472   5.26040
 Alpha virt. eigenvalues --    5.26245   5.26662   5.27010   5.27119   5.27458
 Alpha virt. eigenvalues --    5.28110   5.28135   5.28785   5.28942   5.29436
 Alpha virt. eigenvalues --    5.29677   5.30058   5.30435   5.30607   5.31264
 Alpha virt. eigenvalues --    5.31349   5.31606   5.31663   5.32808   5.33136
 Alpha virt. eigenvalues --    5.33358   5.33556   5.33768   5.33988   5.34783
 Alpha virt. eigenvalues --    5.35330   5.35339   5.35977   5.36334   5.36718
 Alpha virt. eigenvalues --    5.36935   5.37206   5.37649   5.37868   5.38150
 Alpha virt. eigenvalues --    5.38526   5.39147   5.39431   5.39809   5.39907
 Alpha virt. eigenvalues --    5.40339   5.40843   5.41214   5.41545   5.41851
 Alpha virt. eigenvalues --    5.42320   5.42802   5.43081   5.43441   5.44801
 Alpha virt. eigenvalues --    5.44942   5.46047   5.46499   5.46586   5.47593
 Alpha virt. eigenvalues --    5.47954   5.48407   5.48914   5.49090   5.49503
 Alpha virt. eigenvalues --    5.49849   5.50226   5.51207   5.51464   5.51919
 Alpha virt. eigenvalues --    5.52252   5.52591   5.52943   5.53084   5.54154
 Alpha virt. eigenvalues --    5.54464   5.55041   5.55266   5.55927   5.56307
 Alpha virt. eigenvalues --    5.57456   5.57553   5.57774   5.58364   5.58487
 Alpha virt. eigenvalues --    5.58856   5.59057   5.59599   5.60263   5.60594
 Alpha virt. eigenvalues --    5.60780   5.61957   5.62259   5.63029   5.63066
 Alpha virt. eigenvalues --    5.63319   5.63581   5.64189   5.64493   5.64751
 Alpha virt. eigenvalues --    5.65424   5.65570   5.66411   5.67213   5.67677
 Alpha virt. eigenvalues --    5.68725   5.69006   5.69321   5.70309   5.70561
 Alpha virt. eigenvalues --    5.70993   5.71590   5.72684   5.73429   5.73650
 Alpha virt. eigenvalues --    5.74786   5.75872   5.76092   5.76377   5.77172
 Alpha virt. eigenvalues --    5.77935   5.78571   5.79213   5.80398   5.80841
 Alpha virt. eigenvalues --    5.81563   5.82206   5.82678   5.83713   5.85083
 Alpha virt. eigenvalues --    5.85343   5.86333   5.87349   5.88497   5.88804
 Alpha virt. eigenvalues --    5.90068   5.91007   5.94664   5.95602   5.96788
 Alpha virt. eigenvalues --    5.98021   5.98283   6.00325   6.00548   6.01339
 Alpha virt. eigenvalues --    6.02325   6.04491   6.05821   6.06413   6.06732
 Alpha virt. eigenvalues --    6.07177   6.07784   6.09516   6.11014   6.11461
 Alpha virt. eigenvalues --    6.12567   6.14650   6.14994   6.16420   6.22850
 Alpha virt. eigenvalues --    6.23382   6.23617   6.24813   6.32653   6.34980
 Alpha virt. eigenvalues --    6.41998   6.43211   6.44169   6.46477   6.47404
 Alpha virt. eigenvalues --    6.48269   6.53319   6.54191   6.55521   6.56189
 Alpha virt. eigenvalues --    6.58280   6.58479   6.60044   6.68884   6.69306
 Alpha virt. eigenvalues --    6.70863   6.75526   6.76097   6.76497   6.77332
 Alpha virt. eigenvalues --    6.78542   6.79180   6.79398   6.82304   6.82618
 Alpha virt. eigenvalues --    6.82822   6.83299   6.83622   6.84126   6.84224
 Alpha virt. eigenvalues --    6.84367   6.84745   6.84998   6.85021   6.85232
 Alpha virt. eigenvalues --    6.85533   6.85774   6.86005   6.86112   6.86518
 Alpha virt. eigenvalues --    6.86715   6.87299   6.87502   6.87842   6.89126
 Alpha virt. eigenvalues --    6.92261   6.95892   6.96998   6.97472   6.97615
 Alpha virt. eigenvalues --    6.98081   6.98096   7.00773   7.01018   7.01721
 Alpha virt. eigenvalues --    7.01986   7.04951   7.05110   7.05807   7.07232
 Alpha virt. eigenvalues --    7.08256   7.08751   7.09543   7.09679   7.09960
 Alpha virt. eigenvalues --    7.13021   7.13590   7.19821   7.22173   7.24839
 Alpha virt. eigenvalues --    7.33719   7.36333   7.36532   7.36563   7.37470
 Alpha virt. eigenvalues --    7.39951   7.43316   7.43803   7.45340   7.48861
 Alpha virt. eigenvalues --    7.49127   7.53619   7.55412   7.58937   7.59487
 Alpha virt. eigenvalues --    7.62532   7.62964   7.63986   7.86972   7.89322
 Alpha virt. eigenvalues --    7.94259   8.01387   8.27851   8.28358   8.30077
 Alpha virt. eigenvalues --    8.30829   8.31008   8.31470   8.37006   8.45059
 Alpha virt. eigenvalues --    8.45670   8.48851   8.50244   8.57070   8.57372
 Alpha virt. eigenvalues --    8.58102   8.67479   8.67959   8.75267   8.75692
 Alpha virt. eigenvalues --    8.77304   8.78416   8.79075   8.89185   8.90623
 Alpha virt. eigenvalues --    8.95228   8.95916   9.00023   9.00269   9.02562
 Alpha virt. eigenvalues --    9.02961   9.03474   9.11241   9.11290   9.16278
 Alpha virt. eigenvalues --    9.17239   9.19722   9.53848   9.54611   9.73025
 Alpha virt. eigenvalues --    9.79377  10.18901  10.21269  22.55600  22.58518
 Alpha virt. eigenvalues --   22.68509  22.68859  22.74506  22.83430  22.88300
 Alpha virt. eigenvalues --   22.88608  22.89222  22.91211  22.94578  22.95118
 Alpha virt. eigenvalues --   23.00884  23.02746  23.05018  23.05155  23.07527
 Alpha virt. eigenvalues --   23.08611  23.09763  23.09956  23.10472  23.13244
 Alpha virt. eigenvalues --   23.14557  23.16337  23.17741  23.18583  23.19563
 Alpha virt. eigenvalues --   23.20289  23.20667  23.21176  23.21777  23.23017
 Alpha virt. eigenvalues --   23.23819  23.24225  23.25852  23.26130  23.26435
 Alpha virt. eigenvalues --   23.29373  23.31098  23.32681  23.34891  23.35501
 Alpha virt. eigenvalues --   23.35740  23.39228  23.41533  23.42727  23.43471
 Alpha virt. eigenvalues --   23.48660  23.53857  23.55464  23.62205  23.71568
 Alpha virt. eigenvalues --   23.81058  23.81549  23.89660  24.12601  24.13781
 Alpha virt. eigenvalues --   24.16402  24.23766  24.29270  24.37766  24.46189
 Alpha virt. eigenvalues --   32.72712  32.80374  33.24364  34.63895  34.72034
 Alpha virt. eigenvalues --   34.97640  42.98448  43.98426  44.04304  44.18213
 Alpha virt. eigenvalues --   44.24852  44.26956  57.13227  57.15598  57.23299
 Alpha virt. eigenvalues --   57.26518  57.43724  57.47234  57.53220 117.87803
          Condensed to atoms (all electrons):
 Mulliken charges:
               1
     1  C    0.011423
     2  C    0.273244
     3  C   -0.052437
     4  C   -0.139825
     5  C    0.194352
     6  N   -0.273880
     7  H    0.140591
     8  C   -0.122680
     9  C    0.237129
    10  C   -0.235382
    11  C   -0.227810
    12  C   -0.107372
    13  H    0.164587
    14  H    0.157343
    15  H    0.147694
    16  C    0.305099
    17  C    0.118956
    18  C   -0.274917
    19  C   -0.267171
    20  C   -0.135443
    21  H    0.138109
    22  C   -0.096297
    23  H    0.181645
    24  C   -0.187658
    25  H    0.142129
    26  H    0.160288
    27  H    0.145690
    28  F   -0.218984
    29  C   -0.281270
    30  H    0.122592
    31  H    0.092689
    32  H    0.124436
    33  C   -0.048408
    34  C   -0.042317
    35  C    0.011360
    36  H    0.105342
    37  H    0.093044
    38  C    0.005437
    39  H    0.108464
    40  H    0.116400
    41  H    0.100915
    42  H    0.072531
    43  H    0.102410
    44  H    0.074781
    45  N   -0.013497
    46  O   -0.334440
    47  I   -0.024261
    48  H    0.091962
    49  C   -0.137778
    50  C   -0.180961
    51  C   -0.022625
    52  C   -0.059373
    53  C   -0.139135
    54  C   -0.133927
    55  H    0.155824
    56  H    0.162522
    57  C    0.043147
    58  C   -0.083594
    59  H    0.148261
    60  H    0.154839
    61  C   -0.131099
    62  C   -0.055217
    63  H    0.148962
    64  C    0.069745
    65  C   -0.035063
    66  C   -0.016121
    67  C   -0.182053
    68  C   -0.069925
    69  C   -0.181901
    70  C   -0.071841
    71  C   -0.138223
    72  C   -0.139986
    73  H    0.162039
    74  H    0.145276
    75  C   -0.135450
    76  H    0.148341
    77  H    0.155355
    78  H    0.154581
    79  S    0.889579
    80  O   -0.503702
    81  O   -0.527815
    82  S    0.858288
    83  O   -0.485148
    84  O   -0.503249
    85  N   -0.420786
    86  C    0.051135
    87  C    0.293481
    88  C    0.101652
    89  C    0.263847
    90  C   -0.107380
    91  C   -0.157110
    92  C   -0.157854
    93  C   -0.121404
    94  C   -0.160039
    95  H    0.155244
    96  C   -0.124331
    97  H    0.157556
    98  H    0.155639
    99  H    0.158861
   100  C   -0.110794
   101  C   -0.243127
   102  C   -0.144000
   103  C   -0.128884
   104  H    0.160988
   105  C   -0.086731
   106  C   -0.140597
   107  H    0.161075
   108  H    0.161859
   109  H    0.161922
   110  C    0.562899
   111  F   -0.175705
   112  F   -0.189770
   113  F   -0.192492
   114  C    0.547219
   115  F   -0.181056
   116  F   -0.184761
   117  F   -0.185722
 Sum of Mulliken charges =   0.00000
 Mulliken charges with hydrogens summed into heavy atoms:
               1
     1  C    0.011423
     2  C    0.365206
     3  C   -0.052437
     4  C    0.000766
     5  C    0.194352
     6  N   -0.273880
     8  C   -0.122680
     9  C    0.237129
    10  C   -0.070795
    11  C   -0.080116
    12  C    0.049971
    16  C    0.305099
    17  C    0.118956
    18  C   -0.136808
    19  C   -0.085526
    20  C    0.006686
    22  C    0.063991
    24  C   -0.041968
    28  F   -0.218984
    29  C    0.058446
    33  C    0.149978
    34  C    0.182547
    35  C    0.184806
    38  C    0.182627
    45  N   -0.013497
    46  O   -0.334440
    47  I   -0.024261
    49  C    0.018046
    50  C   -0.018439
    51  C   -0.022625
    52  C   -0.059373
    53  C    0.009126
    54  C    0.020913
    57  C    0.043147
    58  C    0.065368
    61  C   -0.131099
    62  C   -0.055217
    64  C    0.069745
    65  C   -0.035063
    66  C   -0.016121
    67  C   -0.182053
    68  C   -0.069925
    69  C   -0.019862
    70  C    0.073436
    71  C    0.010118
    72  C    0.015369
    75  C    0.019131
    79  S    0.889579
    80  O   -0.503702
    81  O   -0.527815
    82  S    0.858288
    83  O   -0.485148
    84  O   -0.503249
    85  N   -0.420786
    86  C    0.051135
    87  C    0.293481
    88  C    0.101652
    89  C    0.263847
    90  C   -0.107380
    91  C   -0.157110
    92  C   -0.002610
    93  C    0.036152
    94  C   -0.004400
    96  C    0.034530
   100  C   -0.110794
   101  C   -0.082139
   102  C   -0.144000
   103  C    0.032190
   105  C    0.075128
   106  C    0.021325
   110  C    0.562899
   111  F   -0.175705
   112  F   -0.189770
   113  F   -0.192492
   114  C    0.547219
   115  F   -0.181056
   116  F   -0.184761
   117  F   -0.185722
 Electronic spatial extent (au):  <R**2>=          62267.8476
 Charge=              0.0000 electrons
 Dipole moment (field-independent basis, Debye):
    X=              1.4486    Y=             -5.3773    Z=              5.2633  Tot=              7.6627
 Quadrupole moment (field-independent basis, Debye-Ang):
   XX=           -433.8162   YY=           -411.5580   ZZ=           -465.0518
   XY=              3.0297   XZ=             31.3765   YZ=             -2.8460
 Traceless Quadrupole moment (field-independent basis, Debye-Ang):
   XX=              2.9925   YY=             25.2506   ZZ=            -28.2431
   XY=              3.0297   XZ=             31.3765   YZ=             -2.8460
 Octapole moment (field-independent basis, Debye-Ang**2):
  XXX=             -8.1987  YYY=             78.0776  ZZZ=           -173.6784  XYY=            150.5987
  XXY=           -332.6279  XXZ=            -73.7218  XZZ=            -55.0285  YZZ=            -66.2773
  YYZ=             27.7374  XYZ=           -156.3373
 Hexadecapole moment (field-independent basis, Debye-Ang**3):
 XXXX=         -41095.8136 YYYY=         -25461.5118 ZZZZ=         -12969.0428 XXXY=            -83.7444
 XXXZ=           1014.4988 YYYX=           -108.2138 YYYZ=            200.2423 ZZZX=           -142.4710
 ZZZY=            757.5712 XXYY=         -10351.9157 XXZZ=          -8730.2169 YYZZ=          -6239.9352
 XXYZ=            -64.8528 YYXZ=           -186.6507 ZZXY=            -21.0327
 N-N= 1.566691760395D+04 E-N=-4.216264336085D+04  KE= 4.441799829895D+03
 Leave Link  601 at Tue Jun 11 19:31:11 2024, MaxMem=  8589934592 cpu:              28.7 elap:               1.6
 (Enter /opt/packages/gaussian/g16RevC.01/g16/l9999.exe)
 Unable to Open any file for archive entry.
 1\1\GINC-R305\SP\RB3LYP\def2TZVPP\C60H39F7I1N3O5S2\BIM2\11-Jun-2024\0\
 \#p b3lyp def2tzvpp scf=maxcycle=128 nosymm scrf=(smd,solvent=propylet
 hanoate) empiricaldispersion=gd3bj\\Title Card Required\\0,1\C,0,-0.65
 9177,-2.813448,-0.433654\C,0,0.460701,-2.141561,-1.094234\C,0,1.776292
 ,-2.458806,-0.528207\C,0,1.844075,-3.005339,0.719689\C,0,0.63028,-3.20
 8716,1.449241\N,0,-0.558744,-3.245661,0.788282\H,0,2.818242,-3.150377,
 1.179064\C,0,-2.004831,-3.014035,-1.054244\C,0,-3.203585,-2.555983,-0.
 457932\C,0,-4.4241,-2.860213,-1.075444\C,0,-3.315386,-4.159085,-2.7800
 32\C,0,-4.481506,-3.635124,-2.231361\H,0,-5.344427,-2.466881,-0.638223
 \H,0,-5.445343,-3.850287,-2.695609\H,0,-3.316657,-4.814504,-3.6512\C,0
 ,-2.110836,-3.851043,-2.167879\C,0,-3.228957,-1.827429,0.841113\C,0,-4
 .072164,-2.289188,1.861807\C,0,-2.425627,-0.707772,1.083238\C,0,-4.098
 453,-1.651814,3.10225\H,0,-4.695262,-3.169246,1.687352\C,0,-2.454421,-
 0.065954,2.320041\H,0,-1.788927,-0.328548,0.283899\C,0,-3.289671,-0.53
 9352,3.334267\H,0,-4.755054,-2.027407,3.889438\H,0,-1.809882,0.799703,
 2.483602\H,0,-3.310805,-0.038097,4.303753\F,0,-1.00169,-4.444155,-2.62
 4887\C,0,3.022338,-2.01535,-1.218928\H,0,2.955576,-0.934263,-1.425901\
 H,0,3.902758,-2.202776,-0.592822\H,0,3.143188,-2.52466,-2.18633\C,0,1.
 746246,-3.365172,3.64984\C,0,-0.681667,-3.432367,3.509825\C,0,1.662702
 ,-4.551226,4.603695\H,0,1.737471,-2.422553,4.221287\H,0,2.675813,-3.41
 7597,3.077345\C,0,-0.65347,-4.615507,4.464193\H,0,-0.777113,-2.495072,
 4.082864\H,0,-1.516786,-3.503024,2.806214\H,0,2.486281,-4.497353,5.327
 835\H,0,1.764361,-5.489042,4.024266\H,0,-1.557418,-4.607361,5.086976\H
 ,0,-0.634277,-5.557582,3.883565\N,0,0.581751,-3.37209,2.769002\O,0,0.4
 58555,-4.549223,5.324413\I,0,0.409358,-1.74585,-3.183118\H,0,0.388999,
 -0.913194,-0.672206\C,0,1.964406,6.819849,-1.574939\C,0,1.336214,5.774
 397,-0.941122\C,0,2.069224,4.620245,-0.546744\C,0,3.459465,4.562339,-0
 .848913\C,0,4.084547,5.663377,-1.497541\C,0,3.353733,6.770505,-1.84925
 8\H,0,1.386178,7.695076,-1.874877\H,0,0.264528,5.82541,-0.747959\C,0,1
 .454588,3.504796,0.112666\C,0,4.197025,3.401255,-0.518833\H,0,5.152495
 ,5.602837,-1.715338\H,0,3.836558,7.611051,-2.349987\C,0,3.598425,2.309
 622,0.080644\C,0,2.202308,2.376634,0.397827\H,0,5.261565,3.360486,-0.7
 55642\C,0,-0.009097,3.584169,0.435387\C,0,-0.938607,2.777359,-0.196305
 \C,0,-0.430306,4.487023,1.466491\C,0,-2.333156,2.857721,0.123769\C,0,-
 1.815752,4.570429,1.785675\C,0,0.486522,5.280611,2.211981\C,0,-2.74049
 1,3.753653,1.0953\C,0,-2.2503,5.461909,2.806183\C,0,0.039394,6.126892,
 3.198275\H,0,1.554588,5.209018,2.005979\H,0,-3.801727,3.821605,1.34129
 4\C,0,-1.342922,6.226964,3.494835\H,0,-3.317106,5.516733,3.031133\H,0,
 0.756796,6.724556,3.762639\H,0,-1.680318,6.907069,4.278445\S,0,1.30840
 8,0.950847,0.996284\O,0,0.4683,1.401837,2.062143\O,0,2.202048,-0.12004
 9,1.294901\S,0,-0.310267,1.521349,-1.299848\O,0,0.595592,2.160248,-2.1
 98977\O,0,-1.390654,0.779773,-1.86349\N,0,0.458521,0.500559,-0.299383\
 C,0,4.422967,1.168789,0.35725\C,0,5.166495,0.232631,0.560855\C,0,-3.35
 4634,2.066464,-0.496259\C,0,-4.286229,1.43112,-0.942234\C,0,-5.328962,
 0.61648,-1.488298\C,0,-6.497884,0.327812,-0.75492\C,0,-5.18307,0.07131
 6,-2.772683\C,0,-7.488544,-0.485956,-1.295912\C,0,-6.181507,-0.735064,
 -3.312003\H,0,-4.272443,0.285079,-3.3332\C,0,-7.332321,-1.017213,-2.57
 7077\H,0,-8.385863,-0.702121,-0.715767\H,0,-6.053923,-1.15191,-4.31235
 8\H,0,-8.113946,-1.650709,-2.998675\C,0,5.937422,-0.943102,0.837998\C,
 0,5.770957,-1.599272,2.067713\C,0,6.828685,-1.489621,-0.106893\C,0,6.4
 779,-2.766589,2.345681\H,0,5.078124,-1.177817,2.797118\C,0,7.531856,-2
 .656525,0.176575\C,0,7.358392,-3.296596,1.40381\H,0,6.340473,-3.264228
 ,3.307067\H,0,8.215926,-3.067488,-0.565971\H,0,7.912906,-4.210273,1.62
 0916\C,0,-6.662623,0.905144,0.627172\F,0,-5.68909,0.515117,1.453077\F,
 0,-7.819783,0.538718,1.184189\F,0,-6.643866,2.243772,0.61422\C,0,6.989
 812,-0.816893,-1.445867\F,0,5.84509,-0.812742,-2.138393\F,0,7.901594,-
 1.429211,-2.20325\F,0,7.372251,0.457522,-1.323881\\Version=ES64L-G16Re
 vC.01\HF=-4644.9980825\RMSD=2.159e-09\Dipole=0.5699093,-2.11561,2.0707
 375\Quadrupole=2.2248445,18.7732392,-20.9980837,2.2525064,23.3276544,-
 2.1159571\PG=C01 [X(C60H39F7I1N3O5S2)]\\@
 The archive entry for this job was punched.


 THE WORLD IS NOT A HAMBURGER - YOU CAN'T HAVE IT YOUR WAY.
 Job cpu time:       2 days  3 hours  1 minutes 46.2 seconds.
 Elapsed time:       0 days  1 hours 36 minutes 33.4 seconds.
 File lengths (MBytes):  RWF=   5930 Int=      0 D2E=      0 Chk=    522 Scr=      1
 Normal termination of Gaussian 16 at Tue Jun 11 19:31:11 2024.
