 Entering Gaussian System, Link 0=g16
 Initial command:
 /opt/packages/gaussian/g16RevC.01/g16/l1.exe "/local/Gau-55370.inp" -scrdir="/local/"
 Entering Link 1 = /opt/packages/gaussian/g16RevC.01/g16/l1.exe PID=     55371.
  
 Copyright (c) 1988-2019, Gaussian, Inc.  All Rights Reserved.
  
 This is part of the Gaussian(R) 16 program.  It is based on
 the Gaussian(R) 09 system (copyright 2009, Gaussian, Inc.),
 the Gaussian(R) 03 system (copyright 2003, Gaussian, Inc.),
 the Gaussian(R) 98 system (copyright 1998, Gaussian, Inc.),
 the Gaussian(R) 94 system (copyright 1995, Gaussian, Inc.),
 the Gaussian 92(TM) system (copyright 1992, Gaussian, Inc.),
 the Gaussian 90(TM) system (copyright 1990, Gaussian, Inc.),
 the Gaussian 88(TM) system (copyright 1988, Gaussian, Inc.),
 the Gaussian 86(TM) system (copyright 1986, Carnegie Mellon
 University), and the Gaussian 82(TM) system (copyright 1983,
 Carnegie Mellon University). Gaussian is a federally registered
 trademark of Gaussian, Inc.
  
 This software contains proprietary and confidential information,
 including trade secrets, belonging to Gaussian, Inc.
  
 This software is provided under written license and may be
 used, copied, transmitted, or stored only in accord with that
 written license.
  
 The following legend is applicable only to US Government
 contracts under FAR:
  
                    RESTRICTED RIGHTS LEGEND
  
 Use, reproduction and disclosure by the US Government is
 subject to restrictions as set forth in subparagraphs (a)
 and (c) of the Commercial Computer Software - Restricted
 Rights clause in FAR 52.227-19.
  
 Gaussian, Inc.
 340 Quinnipiac St., Bldg. 40, Wallingford CT 06492
  
  
 ---------------------------------------------------------------
 Warning -- This program may not be used in any manner that
 competes with the business of Gaussian, Inc. or will provide
 assistance to any competitor of Gaussian, Inc.  The licensee
 of this program is prohibited from giving any competitor of
 Gaussian, Inc. access to this program.  By using this program,
 the user acknowledges that Gaussian, Inc. is engaged in the
 business of creating and licensing software in the field of
 computational chemistry and represents and warrants to the
 licensee that it is not a competitor of Gaussian, Inc. and that
 it will not use this program in any manner prohibited above.
 ---------------------------------------------------------------
  

 Cite this work as:
 Gaussian 16, Revision C.01,
 M. J. Frisch, G. W. Trucks, H. B. Schlegel, G. E. Scuseria, 
 M. A. Robb, J. R. Cheeseman, G. Scalmani, V. Barone, 
 G. A. Petersson, H. Nakatsuji, X. Li, M. Caricato, A. V. Marenich, 
 J. Bloino, B. G. Janesko, R. Gomperts, B. Mennucci, H. P. Hratchian, 
 J. V. Ortiz, A. F. Izmaylov, J. L. Sonnenberg, D. Williams-Young, 
 F. Ding, F. Lipparini, F. Egidi, J. Goings, B. Peng, A. Petrone, 
 T. Henderson, D. Ranasinghe, V. G. Zakrzewski, J. Gao, N. Rega, 
 G. Zheng, W. Liang, M. Hada, M. Ehara, K. Toyota, R. Fukuda, 
 J. Hasegawa, M. Ishida, T. Nakajima, Y. Honda, O. Kitao, H. Nakai, 
 T. Vreven, K. Throssell, J. A. Montgomery, Jr., J. E. Peralta, 
 F. Ogliaro, M. J. Bearpark, J. J. Heyd, E. N. Brothers, K. N. Kudin, 
 V. N. Staroverov, T. A. Keith, R. Kobayashi, J. Normand, 
 K. Raghavachari, A. P. Rendell, J. C. Burant, S. S. Iyengar, 
 J. Tomasi, M. Cossi, J. M. Millam, M. Klene, C. Adamo, R. Cammi, 
 J. W. Ochterski, R. L. Martin, K. Morokuma, O. Farkas, 
 J. B. Foresman, and D. J. Fox, Gaussian, Inc., Wallingford CT, 2019.
 
 ******************************************
 Gaussian 16:  ES64L-G16RevC.01  3-Jul-2019
                11-Jun-2024 
 ******************************************
 %nprocshared=32
 Will use up to   32 processors via shared memory.
 %mem=64GB
 ----------------------------------------------------------------------
 #p b3lyp def2tzvpp scf=maxcycle=128 nosymm scrf=(smd,solvent=propyleth
 anoate) empiricaldispersion=gd3bj
 ----------------------------------------------------------------------
 1/38=1,172=1/1;
 2/12=2,15=1,17=6,18=5,40=1/2;
 3/5=44,7=202,11=2,25=1,30=1,70=32201,72=169,74=-5,124=41/1,2,3;
 4//1;
 5/5=2,7=128,38=5,53=169/2;
 6/7=2,8=2,9=2,10=2,28=1/1;
 99/5=1,9=1/99;
 Leave Link    1 at Tue Jun 11 17:58:36 2024, MaxMem=  8589934592 cpu:               1.9 elap:               0.1
 (Enter /opt/packages/gaussian/g16RevC.01/g16/l101.exe)
 -------------------
 Title Card Required
 -------------------
 Symbolic Z-matrix:
 Charge =  0 Multiplicity = 1
 C                     1.84347  -1.61018  -0.32313 
 C                     0.46018  -1.8115   -0.74088 
 C                    -0.35403  -2.64267   0.14491 
 C                     0.1357   -2.97936   1.37279 
 C                     1.49299  -2.65838   1.71095 
 N                     2.29016  -1.98893   0.83636 
 H                    -0.50802  -3.52002   2.06155 
 C                     2.84559  -0.91307  -1.18044 
 C                     4.14616  -1.43775  -1.36601 
 C                     5.10452  -0.66128  -2.02737 
 C                     3.50325   1.10988  -2.38823 
 C                     4.79095   0.60329  -2.52443 
 H                     6.10386  -1.07176  -2.17964 
 H                     5.55373   1.19451  -3.03354 
 H                     3.21508   2.09338  -2.75953 
 C                     2.5607    0.34275  -1.72068 
 C                     4.50851  -2.8151   -0.92969 
 C                     5.73447  -3.06116  -0.29773 
 C                     3.65342  -3.89855  -1.18414 
 C                     6.0866   -4.35374   0.09419 
 H                     6.41306  -2.22843  -0.10276 
 C                     4.00615  -5.18871  -0.79686 
 H                     2.70639  -3.7275   -1.70442 
 C                     5.22315  -5.42082  -0.15144 
 H                     7.04254  -4.52609   0.59233 
 H                     3.33115  -6.01976  -1.00889 
 H                     5.49896  -6.43209   0.15271 
 F                     1.33502   0.84591  -1.56778 
 C                    -1.75253  -2.99192  -0.24596 
 H                    -2.26589  -2.09497  -0.62968 
 H                    -1.74408  -3.73359  -1.05983 
 H                    -2.31026  -3.40108   0.60523 
 C                     1.39443  -3.72978   3.94686 
 C                     3.48299  -2.80308   3.13959 
 C                     2.12608  -5.04479   4.19457 
 H                     0.34104  -3.91273   3.72286 
 H                     1.45169  -3.10157   4.84954 
 C                     4.12744  -4.15482   3.41886 
 H                     3.95278  -2.32332   2.27663 
 H                     3.57027  -2.15106   4.02335 
 H                     2.01547  -5.69419   3.30463 
 H                     1.68428  -5.55654   5.05948 
 H                     4.09312  -4.76613   2.49638 
 H                     5.17856  -4.01305   3.7043 
 N                     2.05841  -3.00918   2.86431 
 O                     3.4836   -4.82278   4.47598 
 I                     0.16124  -2.06327  -2.83329 
 H                    -0.16013  -0.71368  -0.54767 
 C                    -2.54004   6.6977   -1.44477 
 C                    -2.62271   5.4762   -0.82014 
 C                    -1.44535   4.78952  -0.41062 
 C                    -0.18187   5.38447  -0.6877 
 C                    -0.1271    6.6555   -1.32523 
 C                    -1.28134   7.30023  -1.6926 
 H                    -3.45276   7.20694  -1.75782 
 H                    -3.59904   5.02275  -0.64776 
 C                    -1.48617   3.51259   0.24076 
 C                     1.00226   4.69291  -0.34445 
 H                     0.85111   7.09842  -1.522 
 H                    -1.23465   8.27248  -2.18554 
 C                     0.96602   3.43644   0.23199 
 C                    -0.30559   2.84643   0.52552 
 H                     1.96972   5.15216  -0.55596 
 C                    -2.82639   2.92029   0.57162 
 C                    -3.28486   1.76203  -0.02987 
 C                    -3.61095   3.54792   1.59731 
 C                    -4.52492   1.16015   0.36176 
 C                    -4.8769    2.98952   1.93642 
 C                    -3.16574   4.69515   2.31277 
 C                    -5.30435   1.79697   1.30834 
 C                    -5.67752   3.61157   2.93461 
 C                    -3.95588   5.26969   3.27989 
 H                    -2.18468   5.11882   2.09895 
 H                    -6.2579    1.35252   1.59882 
 C                    -5.22984   4.73176   3.58858 
 H                    -6.6477    3.17165   3.17301 
 H                    -3.59554   6.14693   3.81932 
 H                    -5.84563   5.20383   4.35564 
 S                    -0.44698   1.16326   1.113 
 O                    -1.35239   1.18259   2.21704 
 O                     0.84227   0.58876   1.34226 
 S                    -2.16666   0.95003  -1.16219 
 O                    -1.6487    1.95151  -2.03721 
 O                    -2.78955  -0.1782   -1.77934 
 N                    -1.05471   0.37286  -0.15163 
 C                     2.22577   2.80883   0.49576 
 C                     3.34036   2.35653   0.65101 
 C                    -4.98447  -0.09934  -0.14194 
 C                    -5.39137  -1.18247  -0.50577 
 C                    -5.73406  -2.46895  -1.03287 
 C                    -6.81378  -3.22877  -0.54235 
 C                    -4.95149  -2.99249  -2.07475 
 C                    -7.10022  -4.47817  -1.0839 
 C                    -5.24234  -4.24408  -2.61052 
 H                    -4.11864  -2.39385  -2.4485 
 C                    -6.31469  -4.98742  -2.11837 
 H                    -7.93976  -5.05463  -0.69507 
 H                    -4.62775  -4.63937  -3.42079 
 H                    -6.54443  -5.967    -2.53932 
 C                     4.61155   1.72783   0.8411 
 C                     4.66459   0.48281   1.48703 
 C                     5.8102    2.31261   0.38536 
 C                     5.88876  -0.14996   1.68718 
 H                     3.72949   0.02373   1.81501 
 C                     7.02761   1.66549   0.57306 
 C                     7.0688    0.43429   1.22806 
 H                     5.92228  -1.11072   2.20428 
 H                     7.94656   2.12819   0.21304 
 H                     8.02664  -0.06482   1.3815 
 C                     5.76509   3.64662  -0.31381 
 F                     6.98452   4.07748  -0.64317 
 F                     5.20771   4.59299   0.4483 
 F                     5.05172   3.5993   -1.44587 
 C                    -7.65111  -2.67875   0.5825 
 F                    -8.6393   -3.50934   0.92111 
 F                    -8.21425  -1.50937   0.2618 
 F                    -6.92412  -2.46492   1.68426 
 
 ITRead=  0  0  0  0  0  0  0  0  0  0  0  0  0  0  0  0  0  0  0  0
 ITRead=  0  0  0  0  0  0  0  0  0  0  0  0  0  0  0  0  0  0  0  0
 ITRead=  0  0  0  0  0  0  0  0  0  0  0  0  0  0  0  0  0  0  0  0
 ITRead=  0  0  0  0  0  0  0  0  0  0  0  0  0  0  0  0  0  0  0  0
 ITRead=  0  0  0  0  0  0  0  0  0  0  0  0  0  0  0  0  0  0  0  0
 ITRead=  0  0  0  0  0  0  0  0  0  0  0  0  0  0  0  0  0
 MicOpt= -1 -1 -1 -1 -1 -1 -1 -1 -1 -1 -1 -1 -1 -1 -1 -1 -1 -1 -1 -1
 MicOpt= -1 -1 -1 -1 -1 -1 -1 -1 -1 -1 -1 -1 -1 -1 -1 -1 -1 -1 -1 -1
 MicOpt= -1 -1 -1 -1 -1 -1 -1 -1 -1 -1 -1 -1 -1 -1 -1 -1 -1 -1 -1 -1
 MicOpt= -1 -1 -1 -1 -1 -1 -1 -1 -1 -1 -1 -1 -1 -1 -1 -1 -1 -1 -1 -1
 MicOpt= -1 -1 -1 -1 -1 -1 -1 -1 -1 -1 -1 -1 -1 -1 -1 -1 -1 -1 -1 -1
 MicOpt= -1 -1 -1 -1 -1 -1 -1 -1 -1 -1 -1 -1 -1 -1 -1 -1 -1
 NAtoms=    117 NQM=      117 NQMF=       0 NMMI=      0 NMMIF=      0
                NMic=       0 NMicF=      0.
                    Isotopes and Nuclear Properties:
 (Nuclear quadrupole moments (NQMom) in fm**2, nuclear magnetic moments (NMagM)
  in nuclear magnetons)

  Atom         1           2           3           4           5           6           7           8           9          10
 IAtWgt=          12          12          12          12          12          14           1          12          12          12
 AtmWgt=  12.0000000  12.0000000  12.0000000  12.0000000  12.0000000  14.0030740   1.0078250  12.0000000  12.0000000  12.0000000
 NucSpn=           0           0           0           0           0           2           1           0           0           0
 AtZEff=   0.0000000   0.0000000   0.0000000   0.0000000   0.0000000   0.0000000   0.0000000   0.0000000   0.0000000   0.0000000
 NQMom=    0.0000000   0.0000000   0.0000000   0.0000000   0.0000000   2.0440000   0.0000000   0.0000000   0.0000000   0.0000000
 NMagM=    0.0000000   0.0000000   0.0000000   0.0000000   0.0000000   0.4037610   2.7928460   0.0000000   0.0000000   0.0000000
 AtZNuc=   6.0000000   6.0000000   6.0000000   6.0000000   6.0000000   7.0000000   1.0000000   6.0000000   6.0000000   6.0000000

  Atom        11          12          13          14          15          16          17          18          19          20
 IAtWgt=          12          12           1           1           1          12          12          12          12          12
 AtmWgt=  12.0000000  12.0000000   1.0078250   1.0078250   1.0078250  12.0000000  12.0000000  12.0000000  12.0000000  12.0000000
 NucSpn=           0           0           1           1           1           0           0           0           0           0
 AtZEff=   0.0000000   0.0000000   0.0000000   0.0000000   0.0000000   0.0000000   0.0000000   0.0000000   0.0000000   0.0000000
 NQMom=    0.0000000   0.0000000   0.0000000   0.0000000   0.0000000   0.0000000   0.0000000   0.0000000   0.0000000   0.0000000
 NMagM=    0.0000000   0.0000000   2.7928460   2.7928460   2.7928460   0.0000000   0.0000000   0.0000000   0.0000000   0.0000000
 AtZNuc=   6.0000000   6.0000000   1.0000000   1.0000000   1.0000000   6.0000000   6.0000000   6.0000000   6.0000000   6.0000000

  Atom        21          22          23          24          25          26          27          28          29          30
 IAtWgt=           1          12           1          12           1           1           1          19          12           1
 AtmWgt=   1.0078250  12.0000000   1.0078250  12.0000000   1.0078250   1.0078250   1.0078250  18.9984032  12.0000000   1.0078250
 NucSpn=           1           0           1           0           1           1           1           1           0           1
 AtZEff=   0.0000000   0.0000000   0.0000000   0.0000000   0.0000000   0.0000000   0.0000000   0.0000000   0.0000000   0.0000000
 NQMom=    0.0000000   0.0000000   0.0000000   0.0000000   0.0000000   0.0000000   0.0000000   0.0000000   0.0000000   0.0000000
 NMagM=    2.7928460   0.0000000   2.7928460   0.0000000   2.7928460   2.7928460   2.7928460   2.6288670   0.0000000   2.7928460
 AtZNuc=   1.0000000   6.0000000   1.0000000   6.0000000   1.0000000   1.0000000   1.0000000   9.0000000   6.0000000   1.0000000

  Atom        31          32          33          34          35          36          37          38          39          40
 IAtWgt=           1           1          12          12          12           1           1          12           1           1
 AtmWgt=   1.0078250   1.0078250  12.0000000  12.0000000  12.0000000   1.0078250   1.0078250  12.0000000   1.0078250   1.0078250
 NucSpn=           1           1           0           0           0           1           1           0           1           1
 AtZEff=   0.0000000   0.0000000   0.0000000   0.0000000   0.0000000   0.0000000   0.0000000   0.0000000   0.0000000   0.0000000
 NQMom=    0.0000000   0.0000000   0.0000000   0.0000000   0.0000000   0.0000000   0.0000000   0.0000000   0.0000000   0.0000000
 NMagM=    2.7928460   2.7928460   0.0000000   0.0000000   0.0000000   2.7928460   2.7928460   0.0000000   2.7928460   2.7928460
 AtZNuc=   1.0000000   1.0000000   6.0000000   6.0000000   6.0000000   1.0000000   1.0000000   6.0000000   1.0000000   1.0000000

  Atom        41          42          43          44          45          46          47          48          49          50
 IAtWgt=           1           1           1           1          14          16         127           1          12          12
 AtmWgt=   1.0078250   1.0078250   1.0078250   1.0078250  14.0030740  15.9949146 126.9004000   1.0078250  12.0000000  12.0000000
 NucSpn=           1           1           1           1           2           0           5           1           0           0
 AtZEff=   0.0000000   0.0000000   0.0000000   0.0000000   0.0000000   0.0000000   0.0000000   0.0000000   0.0000000   0.0000000
 NQMom=    0.0000000   0.0000000   0.0000000   0.0000000   2.0440000   0.0000000 -71.0000000   0.0000000   0.0000000   0.0000000
 NMagM=    2.7928460   2.7928460   2.7928460   2.7928460   0.4037610   0.0000000   2.8132800   2.7928460   0.0000000   0.0000000
 AtZNuc=   1.0000000   1.0000000   1.0000000   1.0000000   7.0000000   8.0000000  53.0000000   1.0000000   6.0000000   6.0000000

  Atom        51          52          53          54          55          56          57          58          59          60
 IAtWgt=          12          12          12          12           1           1          12          12           1           1
 AtmWgt=  12.0000000  12.0000000  12.0000000  12.0000000   1.0078250   1.0078250  12.0000000  12.0000000   1.0078250   1.0078250
 NucSpn=           0           0           0           0           1           1           0           0           1           1
 AtZEff=   0.0000000   0.0000000   0.0000000   0.0000000   0.0000000   0.0000000   0.0000000   0.0000000   0.0000000   0.0000000
 NQMom=    0.0000000   0.0000000   0.0000000   0.0000000   0.0000000   0.0000000   0.0000000   0.0000000   0.0000000   0.0000000
 NMagM=    0.0000000   0.0000000   0.0000000   0.0000000   2.7928460   2.7928460   0.0000000   0.0000000   2.7928460   2.7928460
 AtZNuc=   6.0000000   6.0000000   6.0000000   6.0000000   1.0000000   1.0000000   6.0000000   6.0000000   1.0000000   1.0000000

  Atom        61          62          63          64          65          66          67          68          69          70
 IAtWgt=          12          12           1          12          12          12          12          12          12          12
 AtmWgt=  12.0000000  12.0000000   1.0078250  12.0000000  12.0000000  12.0000000  12.0000000  12.0000000  12.0000000  12.0000000
 NucSpn=           0           0           1           0           0           0           0           0           0           0
 AtZEff=   0.0000000   0.0000000   0.0000000   0.0000000   0.0000000   0.0000000   0.0000000   0.0000000   0.0000000   0.0000000
 NQMom=    0.0000000   0.0000000   0.0000000   0.0000000   0.0000000   0.0000000   0.0000000   0.0000000   0.0000000   0.0000000
 NMagM=    0.0000000   0.0000000   2.7928460   0.0000000   0.0000000   0.0000000   0.0000000   0.0000000   0.0000000   0.0000000
 AtZNuc=   6.0000000   6.0000000   1.0000000   6.0000000   6.0000000   6.0000000   6.0000000   6.0000000   6.0000000   6.0000000

  Atom        71          72          73          74          75          76          77          78          79          80
 IAtWgt=          12          12           1           1          12           1           1           1          32          16
 AtmWgt=  12.0000000  12.0000000   1.0078250   1.0078250  12.0000000   1.0078250   1.0078250   1.0078250  31.9720718  15.9949146
 NucSpn=           0           0           1           1           0           1           1           1           0           0
 AtZEff=   0.0000000   0.0000000   0.0000000   0.0000000   0.0000000   0.0000000   0.0000000   0.0000000   0.0000000   0.0000000
 NQMom=    0.0000000   0.0000000   0.0000000   0.0000000   0.0000000   0.0000000   0.0000000   0.0000000   0.0000000   0.0000000
 NMagM=    0.0000000   0.0000000   2.7928460   2.7928460   0.0000000   2.7928460   2.7928460   2.7928460   0.0000000   0.0000000
 AtZNuc=   6.0000000   6.0000000   1.0000000   1.0000000   6.0000000   1.0000000   1.0000000   1.0000000  16.0000000   8.0000000

  Atom        81          82          83          84          85          86          87          88          89          90
 IAtWgt=          16          32          16          16          14          12          12          12          12          12
 AtmWgt=  15.9949146  31.9720718  15.9949146  15.9949146  14.0030740  12.0000000  12.0000000  12.0000000  12.0000000  12.0000000
 NucSpn=           0           0           0           0           2           0           0           0           0           0
 AtZEff=   0.0000000   0.0000000   0.0000000   0.0000000   0.0000000   0.0000000   0.0000000   0.0000000   0.0000000   0.0000000
 NQMom=    0.0000000   0.0000000   0.0000000   0.0000000   2.0440000   0.0000000   0.0000000   0.0000000   0.0000000   0.0000000
 NMagM=    0.0000000   0.0000000   0.0000000   0.0000000   0.4037610   0.0000000   0.0000000   0.0000000   0.0000000   0.0000000
 AtZNuc=   8.0000000  16.0000000   8.0000000   8.0000000   7.0000000   6.0000000   6.0000000   6.0000000   6.0000000   6.0000000

  Atom        91          92          93          94          95          96          97          98          99         100
 IAtWgt=          12          12          12          12           1          12           1           1           1          12
 AtmWgt=  12.0000000  12.0000000  12.0000000  12.0000000   1.0078250  12.0000000   1.0078250   1.0078250   1.0078250  12.0000000
 NucSpn=           0           0           0           0           1           0           1           1           1           0
 AtZEff=   0.0000000   0.0000000   0.0000000   0.0000000   0.0000000   0.0000000   0.0000000   0.0000000   0.0000000   0.0000000
 NQMom=    0.0000000   0.0000000   0.0000000   0.0000000   0.0000000   0.0000000   0.0000000   0.0000000   0.0000000   0.0000000
 NMagM=    0.0000000   0.0000000   0.0000000   0.0000000   2.7928460   0.0000000   2.7928460   2.7928460   2.7928460   0.0000000
 AtZNuc=   6.0000000   6.0000000   6.0000000   6.0000000   1.0000000   6.0000000   1.0000000   1.0000000   1.0000000   6.0000000

  Atom       101         102         103         104         105         106         107         108         109         110
 IAtWgt=          12          12          12           1          12          12           1           1           1          12
 AtmWgt=  12.0000000  12.0000000  12.0000000   1.0078250  12.0000000  12.0000000   1.0078250   1.0078250   1.0078250  12.0000000
 NucSpn=           0           0           0           1           0           0           1           1           1           0
 AtZEff=   0.0000000   0.0000000   0.0000000   0.0000000   0.0000000   0.0000000   0.0000000   0.0000000   0.0000000   0.0000000
 NQMom=    0.0000000   0.0000000   0.0000000   0.0000000   0.0000000   0.0000000   0.0000000   0.0000000   0.0000000   0.0000000
 NMagM=    0.0000000   0.0000000   0.0000000   2.7928460   0.0000000   0.0000000   2.7928460   2.7928460   2.7928460   0.0000000
 AtZNuc=   6.0000000   6.0000000   6.0000000   1.0000000   6.0000000   6.0000000   1.0000000   1.0000000   1.0000000   6.0000000

  Atom       111         112         113         114         115         116         117
 IAtWgt=          19          19          19          12          19          19          19
 AtmWgt=  18.9984032  18.9984032  18.9984032  12.0000000  18.9984032  18.9984032  18.9984032
 NucSpn=           1           1           1           0           1           1           1
 AtZEff=   0.0000000   0.0000000   0.0000000   0.0000000   0.0000000   0.0000000   0.0000000
 NQMom=    0.0000000   0.0000000   0.0000000   0.0000000   0.0000000   0.0000000   0.0000000
 NMagM=    2.6288670   2.6288670   2.6288670   0.0000000   2.6288670   2.6288670   2.6288670
 AtZNuc=   9.0000000   9.0000000   9.0000000   6.0000000   9.0000000   9.0000000   9.0000000
 Leave Link  101 at Tue Jun 11 17:58:37 2024, MaxMem=  8589934592 cpu:               4.8 elap:               0.2
 (Enter /opt/packages/gaussian/g16RevC.01/g16/l202.exe)
 Symmetry turned off by external request.
 Stoichiometry    C60H39F7IN3O5S2
 Framework group  C1[X(C60H39F7IN3O5S2)]
 Deg. of freedom   345
 Full point group                 C1      NOp   1
                          Input orientation:                          
 ---------------------------------------------------------------------
 Center     Atomic      Atomic             Coordinates (Angstroms)
 Number     Number       Type             X           Y           Z
 ---------------------------------------------------------------------
      1          6           0        1.843474   -1.610182   -0.323129
      2          6           0        0.460180   -1.811503   -0.740875
      3          6           0       -0.354033   -2.642671    0.144906
      4          6           0        0.135703   -2.979359    1.372794
      5          6           0        1.492994   -2.658375    1.710954
      6          7           0        2.290161   -1.988929    0.836364
      7          1           0       -0.508016   -3.520018    2.061547
      8          6           0        2.845594   -0.913067   -1.180443
      9          6           0        4.146155   -1.437754   -1.366005
     10          6           0        5.104519   -0.661279   -2.027366
     11          6           0        3.503249    1.109883   -2.388226
     12          6           0        4.790951    0.603287   -2.524428
     13          1           0        6.103856   -1.071759   -2.179638
     14          1           0        5.553733    1.194513   -3.033543
     15          1           0        3.215078    2.093380   -2.759527
     16          6           0        2.560704    0.342751   -1.720676
     17          6           0        4.508509   -2.815100   -0.929693
     18          6           0        5.734470   -3.061164   -0.297729
     19          6           0        3.653419   -3.898547   -1.184144
     20          6           0        6.086596   -4.353744    0.094187
     21          1           0        6.413060   -2.228426   -0.102764
     22          6           0        4.006154   -5.188708   -0.796855
     23          1           0        2.706394   -3.727501   -1.704421
     24          6           0        5.223147   -5.420817   -0.151435
     25          1           0        7.042543   -4.526088    0.592327
     26          1           0        3.331152   -6.019761   -1.008887
     27          1           0        5.498960   -6.432089    0.152714
     28          9           0        1.335015    0.845911   -1.567784
     29          6           0       -1.752525   -2.991921   -0.245957
     30          1           0       -2.265895   -2.094971   -0.629676
     31          1           0       -1.744078   -3.733590   -1.059832
     32          1           0       -2.310262   -3.401080    0.605229
     33          6           0        1.394431   -3.729783    3.946857
     34          6           0        3.482994   -2.803084    3.139585
     35          6           0        2.126084   -5.044789    4.194567
     36          1           0        0.341036   -3.912730    3.722856
     37          1           0        1.451689   -3.101570    4.849540
     38          6           0        4.127439   -4.154818    3.418859
     39          1           0        3.952779   -2.323320    2.276626
     40          1           0        3.570269   -2.151060    4.023352
     41          1           0        2.015469   -5.694185    3.304634
     42          1           0        1.684282   -5.556540    5.059482
     43          1           0        4.093120   -4.766127    2.496383
     44          1           0        5.178565   -4.013052    3.704295
     45          7           0        2.058410   -3.009178    2.864311
     46          8           0        3.483601   -4.822781    4.475977
     47         53           0        0.161238   -2.063269   -2.833285
     48          1           0       -0.160126   -0.713677   -0.547674
     49          6           0       -2.540040    6.697699   -1.444765
     50          6           0       -2.622711    5.476200   -0.820142
     51          6           0       -1.445351    4.789522   -0.410623
     52          6           0       -0.181874    5.384468   -0.687698
     53          6           0       -0.127097    6.655504   -1.325231
     54          6           0       -1.281341    7.300235   -1.692598
     55          1           0       -3.452762    7.206943   -1.757820
     56          1           0       -3.599041    5.022747   -0.647757
     57          6           0       -1.486174    3.512587    0.240762
     58          6           0        1.002265    4.692907   -0.344445
     59          1           0        0.851109    7.098417   -1.522000
     60          1           0       -1.234650    8.272478   -2.185536
     61          6           0        0.966017    3.436437    0.231989
     62          6           0       -0.305588    2.846426    0.525518
     63          1           0        1.969718    5.152162   -0.555961
     64          6           0       -2.826390    2.920289    0.571619
     65          6           0       -3.284856    1.762030   -0.029871
     66          6           0       -3.610945    3.547919    1.597310
     67          6           0       -4.524921    1.160148    0.361764
     68          6           0       -4.876896    2.989515    1.936417
     69          6           0       -3.165743    4.695151    2.312770
     70          6           0       -5.304347    1.796965    1.308336
     71          6           0       -5.677519    3.611574    2.934607
     72          6           0       -3.955876    5.269688    3.279889
     73          1           0       -2.184677    5.118821    2.098949
     74          1           0       -6.257895    1.352515    1.598818
     75          6           0       -5.229843    4.731764    3.588582
     76          1           0       -6.647702    3.171646    3.173014
     77          1           0       -3.595536    6.146929    3.819322
     78          1           0       -5.845633    5.203834    4.355643
     79         16           0       -0.446982    1.163258    1.112998
     80          8           0       -1.352388    1.182589    2.217044
     81          8           0        0.842274    0.588757    1.342258
     82         16           0       -2.166659    0.950034   -1.162194
     83          8           0       -1.648701    1.951513   -2.037213
     84          8           0       -2.789551   -0.178196   -1.779339
     85          7           0       -1.054706    0.372861   -0.151626
     86          6           0        2.225771    2.808828    0.495757
     87          6           0        3.340356    2.356527    0.651011
     88          6           0       -4.984472   -0.099337   -0.141936
     89          6           0       -5.391374   -1.182471   -0.505773
     90          6           0       -5.734056   -2.468947   -1.032871
     91          6           0       -6.813784   -3.228772   -0.542351
     92          6           0       -4.951487   -2.992488   -2.074746
     93          6           0       -7.100217   -4.478167   -1.083902
     94          6           0       -5.242337   -4.244081   -2.610515
     95          1           0       -4.118640   -2.393852   -2.448500
     96          6           0       -6.314686   -4.987421   -2.118368
     97          1           0       -7.939755   -5.054633   -0.695066
     98          1           0       -4.627747   -4.639365   -3.420786
     99          1           0       -6.544425   -5.966995   -2.539320
    100          6           0        4.611554    1.727826    0.841101
    101          6           0        4.664594    0.482805    1.487032
    102          6           0        5.810200    2.312613    0.385363
    103          6           0        5.888764   -0.149959    1.687179
    104          1           0        3.729487    0.023732    1.815007
    105          6           0        7.027607    1.665492    0.573063
    106          6           0        7.068803    0.434290    1.228058
    107          1           0        5.922279   -1.110718    2.204284
    108          1           0        7.946557    2.128193    0.213036
    109          1           0        8.026642   -0.064823    1.381500
    110          6           0        5.765086    3.646617   -0.313805
    111          9           0        6.984523    4.077482   -0.643168
    112          9           0        5.207711    4.592994    0.448300
    113          9           0        5.051718    3.599296   -1.445869
    114          6           0       -7.651114   -2.678752    0.582501
    115          9           0       -8.639303   -3.509335    0.921112
    116          9           0       -8.214250   -1.509371    0.261795
    117          9           0       -6.924118   -2.464915    1.684263
 ---------------------------------------------------------------------
 Rotational constants (GHZ):           0.0305203           0.0207425           0.0155271
 Leave Link  202 at Tue Jun 11 17:58:37 2024, MaxMem=  8589934592 cpu:               0.6 elap:               0.0
 (Enter /opt/packages/gaussian/g16RevC.01/g16/l301.exe)
 Standard basis: def2TZVPP (5D, 7F)
 Ernie: Thresh=  0.10000D-02 Tol=  0.10000D-05 Strict=F.
  3005 basis functions,  4735 primitive gaussians,  3440 cartesian basis functions
   290 alpha electrons      290 beta electrons
       nuclear repulsion energy     15449.6081465976 Hartrees.
 IExCor=  402 DFT=T Ex+Corr=B3LYP ExCW=0 ScaHFX=  0.200000
 ScaDFX=  0.800000  0.720000  1.000000  0.810000 ScalE2=  1.000000  1.000000
 IRadAn=      5 IRanWt=     -1 IRanGd=            0 ICorTp=0 IEmpDi=141
 NAtoms=  117 NActive=  117 NUniq=  117 SFac= 1.00D+00 NAtFMM=   60 NAOKFM=T Big=T
 Integral buffers will be    131072 words long.
 Raffenetti 2 integral format.
 Two-electron integral symmetry is turned off.
 R6Disp:  Grimme-D3(BJ) Dispersion energy=       -0.3870152051 Hartrees.
 Nuclear repulsion after empirical dispersion term =    15449.2211313925 Hartrees.
 ------------------------------------------------------------------------------
 Polarizable Continuum Model (PCM)
 =================================
 Model                : PCM.
 Atomic radii         : SMD-Coulomb.
 Polarization charges : Total charges.
 Charge compensation  : None.
 Solution method      : On-the-fly selection.
 Cavity type          : VdW (van der Waals Surface) (Alpha=1.000).
 Cavity algorithm     : GePol (No added spheres)
                        Default sphere list used, NSphG=  117.
                        Lebedev-Laikov grids with approx.  5.0 points / Ang**2.
                        Smoothing algorithm: York/Karplus (Gamma=1.0000).
                        Polarization charges: spherical gaussians, with
                                              point-specific exponents (IZeta= 3).
                        Self-potential: point-specific (ISelfS= 7).
                        Self-field    : sphere-specific E.n sum rule (ISelfD= 2).
 Solvent              : PropylEthanoate, Eps=   5.520500 Eps(inf)=   1.916010
 ------------------------------------------------------------------------------
 GePol: Number of generator spheres                  =     117
 GePol: Total number of spheres                      =     117
 GePol: Number of exposed spheres                    =     117 (100.00%)
 GePol: Number of points                             =    8401
 GePol: Average weight of points                     =       0.11
 GePol: Minimum weight of points                     =   0.80D-11
 GePol: Maximum weight of points                     =    0.21501
 GePol: Number of points with low weight             =     543
 GePol: Fraction of low-weight points (<1% of avg)   =       6.46%
 GePol: Cavity surface area                          =    942.083 Ang**2
 GePol: Cavity volume                                =   1072.979 Ang**3
 ------------------------------------------------------------------------------
 Atomic radii for non-electrostatic terms: SMD-CDS.
 ------------------------------------------------------------------------------
 PCM non-electrostatic energy =        -0.0220698310 Hartrees.
 Nuclear repulsion after PCM non-electrostatic terms =    15449.1990615616 Hartrees.
 Leave Link  301 at Tue Jun 11 17:58:37 2024, MaxMem=  8589934592 cpu:               4.3 elap:               0.2
 (Enter /opt/packages/gaussian/g16RevC.01/g16/l302.exe)
 NPDir=0 NMtPBC=     1 NCelOv=     1 NCel=       1 NClECP=     1 NCelD=      1
         NCelK=      1 NCelE2=     1 NClLst=     1 CellRange=     0.0.
 One-electron integrals computed using PRISM.
   1 Symmetry operations used in ECPInt.
 ECPInt:  NShTT=  608856 NPrTT= 1802125 LenC2=  375066 LenP2D=  709255.
 LDataN:  DoStor=T MaxTD1= 7 Len=  274
 Number of processors reduced to  17 by ecpmxn.
 NBasis=  3005 RedAO= T EigKep=  1.97D-06  NBF=  3005
 NBsUse=  3005 1.00D-06 EigRej= -1.00D+00 NBFU=  3005
 Precomputing XC quadrature grid using
 IXCGrd= 4 IRadAn=           5 IRanWt=          -1 IRanGd=           0 AccXCQ= 0.00D+00.
 Defaulting to unpruned grid for atomic number  53.
 Generated NRdTot=       0 NPtTot=           0 NUsed=           0 NTot=          32
 NSgBfM=  3007  3007  3007  3007  3007 MxSgAt=   117 MxSgA2=   117.
 Leave Link  302 at Tue Jun 11 17:59:09 2024, MaxMem=  8589934592 cpu:             999.0 elap:              32.3
 (Enter /opt/packages/gaussian/g16RevC.01/g16/l303.exe)
 DipDrv:  MaxL=1.
 Leave Link  303 at Tue Jun 11 17:59:10 2024, MaxMem=  8589934592 cpu:              32.9 elap:               1.4
 (Enter /opt/packages/gaussian/g16RevC.01/g16/l401.exe)
 ExpMin= 7.49D-02 ExpMax= 6.07D+04 ExpMxC= 2.07D+03 IAcc=3 IRadAn=         5 AccDes= 0.00D+00
 Harris functional with IExCor=  402 and IRadAn=       5 diagonalized for initial guess.
 HarFok:  IExCor=  402 AccDes= 0.00D+00 IRadAn=         5 IDoV= 1 UseB2=F ITyADJ=14
 ICtDFT=  3500011 ScaDFX=  1.000000  1.000000  1.000000  1.000000
 Defaulting to unpruned grid for atomic number  53.
 FoFCou: FMM=F IPFlag=           0 FMFlag=      100000 FMFlg1=        2001
         NFxFlg=           0 DoJE=T BraDBF=F KetDBF=T FulRan=T
         wScrn=  0.000000 ICntrl=       500 IOpCl=  0 I1Cent=   200000004 NGrid=           0
         NMat0=    1 NMatS0=      1 NMatT0=    0 NMatD0=    1 NMtDS0=    0 NMtDT0=    0
 Symmetry not used in FoFCou.
 Harris En= -4645.00185209395    
 JPrj=0 DoOrth=F DoCkMO=F.
 Leave Link  401 at Tue Jun 11 17:59:43 2024, MaxMem=  8589934592 cpu:            1025.1 elap:              32.3
 (Enter /opt/packages/gaussian/g16RevC.01/g16/l502.exe)
 Two-electron integral symmetry not used.
 Closed shell SCF:
 Using DIIS extrapolation, IDIIS=  1040.
 NGot=  8589934592 LenX=  8566133628 LenY=  8554296588
 Requested convergence on RMS density matrix=1.00D-08 within 128 cycles.
 Requested convergence on MAX density matrix=1.00D-06.
 Requested convergence on             energy=1.00D-06.
 No special actions if energy rises.
 Fock matrices will be formed incrementally for  20 cycles.

 Cycle   1  Pass 1  IDiag  1:
 FoFJK:  IHMeth= 1 ICntrl=       0 DoSepK=F KAlg= 0 I1Cent=           0 FoldK=F
 IRaf= 570000000 NMat=       1 IRICut=       1 DoRegI=T DoRafI=F ISym2E= 0 IDoP0=0 IntGTp=1.
 FoFCou: FMM=T IPFlag=           0 FMFlag=      100000 FMFlg1=        2001
         NFxFlg=           0 DoJE=F BraDBF=F KetDBF=F FulRan=T
         wScrn=  0.000000 ICntrl=         0 IOpCl=  0 I1Cent=           0 NGrid=           0
         NMat0=    1 NMatS0=      1 NMatT0=    0 NMatD0=    1 NMtDS0=    0 NMtDT0=    0
 Symmetry not used in FoFCou.
 FMM levels:  10  Number of levels for PrismC:   9
 Defaulting to unpruned grid for atomic number  53.
 Defaulting to unpruned grid for atomic number  53.
 Defaulting to unpruned grid for atomic number  53.
 Defaulting to unpruned grid for atomic number  53.
 Defaulting to unpruned grid for atomic number  53.
 Defaulting to unpruned grid for atomic number  53.
 Defaulting to unpruned grid for atomic number  53.
 Defaulting to unpruned grid for atomic number  53.
 Defaulting to unpruned grid for atomic number  53.
 Defaulting to unpruned grid for atomic number  53.
 Defaulting to unpruned grid for atomic number  53.
 Defaulting to unpruned grid for atomic number  53.
 Defaulting to unpruned grid for atomic number  53.
 Defaulting to unpruned grid for atomic number  53.
 Defaulting to unpruned grid for atomic number  53.
 Defaulting to unpruned grid for atomic number  53.
 Defaulting to unpruned grid for atomic number  53.
 Defaulting to unpruned grid for atomic number  53.
 Defaulting to unpruned grid for atomic number  53.
 Defaulting to unpruned grid for atomic number  53.
 Defaulting to unpruned grid for atomic number  53.
 Defaulting to unpruned grid for atomic number  53.
 Defaulting to unpruned grid for atomic number  53.
 Defaulting to unpruned grid for atomic number  53.
 Defaulting to unpruned grid for atomic number  53.
 Defaulting to unpruned grid for atomic number  53.
 Defaulting to unpruned grid for atomic number  53.
 Defaulting to unpruned grid for atomic number  53.
 Defaulting to unpruned grid for atomic number  53.
 Defaulting to unpruned grid for atomic number  53.
 Defaulting to unpruned grid for atomic number  53.
 Defaulting to unpruned grid for atomic number  53.
 Inv3:  Mode=1 IEnd=   211730403.
 Iteration    1 A*A^-1 deviation from unit magnitude is 1.15D-14 for   6219.
 Iteration    1 A*A^-1 deviation from orthogonality  is 1.11D-14 for   6219     96.
 Iteration    1 A^-1*A deviation from unit magnitude is 8.88D-15 for     96.
 Iteration    1 A^-1*A deviation from orthogonality  is 6.80D-13 for   4245   4193.
 E= -4643.10509980770    
 DIIS: error= 1.19D-02 at cycle   1 NSaved=   1.
 NSaved= 1 IEnMin= 1 EnMin= -4643.10509980770     IErMin= 1 ErrMin= 1.19D-02
 ErrMax= 1.19D-02  0.00D+00 EMaxC= 1.00D-01 BMatC= 2.39D+00 BMatP= 2.39D+00
 IDIUse=3 WtCom= 8.81D-01 WtEn= 1.19D-01
 Coeff-Com:  0.100D+01
 Coeff-En:   0.100D+01
 Coeff:      0.100D+01
 Gap=     0.295 Goal=   None    Shift=    0.000
 GapD=    0.295 DampG=1.000 DampE=0.500 DampFc=0.5000 IDamp=-1.
 Damping current iteration by 5.00D-01
 RMSDP=2.93D-03 MaxDP=1.33D+00              OVMax= 2.32D-01

 Cycle   2  Pass 1  IDiag  1:
 RMSU=  1.45D-03    CP:  1.06D+00
 E= -4643.63141584171     Delta-E=       -0.526316034018 Rises=F Damp=T
 DIIS: error= 4.99D-03 at cycle   2 NSaved=   2.
 NSaved= 2 IEnMin= 2 EnMin= -4643.63141584171     IErMin= 2 ErrMin= 4.99D-03
 ErrMax= 4.99D-03  0.00D+00 EMaxC= 1.00D-01 BMatC= 3.69D-01 BMatP= 2.39D+00
 IDIUse=3 WtCom= 9.50D-01 WtEn= 4.99D-02
 Coeff-Com:  0.193D+00 0.807D+00
 Coeff-En:   0.332D+00 0.668D+00
 Coeff:      0.200D+00 0.800D+00
 Gap=     0.115 Goal=   None    Shift=    0.000
 RMSDP=1.31D-03 MaxDP=3.41D-01 DE=-5.26D-01 OVMax= 2.49D-01

 Cycle   3  Pass 1  IDiag  1:
 RMSU=  1.18D-03    CP:  1.05D+00  6.07D-01
 E= -4644.61009623713     Delta-E=       -0.978680395418 Rises=F Damp=F
 DIIS: error= 6.21D-03 at cycle   3 NSaved=   3.
 NSaved= 3 IEnMin= 3 EnMin= -4644.61009623713     IErMin= 2 ErrMin= 4.99D-03
 ErrMax= 6.21D-03  0.00D+00 EMaxC= 1.00D-01 BMatC= 4.46D-01 BMatP= 3.69D-01
 IDIUse=3 WtCom= 1.13D-01 WtEn= 8.87D-01
 Coeff-Com:  0.286D-01 0.521D+00 0.450D+00
 Coeff-En:   0.000D+00 0.000D+00 0.100D+01
 Coeff:      0.322D-02 0.587D-01 0.938D+00
 Gap=     0.299 Goal=   None    Shift=    0.000
 RMSDP=2.17D-03 MaxDP=9.41D-01 DE=-9.79D-01 OVMax= 2.87D-01

 Cycle   4  Pass 1  IDiag  1:
 RMSU=  1.12D-03    CP:  1.01D+00  9.46D-01 -5.07D-01
 E= -4642.84635323826     Delta-E=        1.763742998872 Rises=F Damp=F
 DIIS: error= 1.65D-02 at cycle   4 NSaved=   4.
 NSaved= 4 IEnMin= 3 EnMin= -4644.61009623713     IErMin= 2 ErrMin= 4.99D-03
 ErrMax= 1.65D-02  0.00D+00 EMaxC= 1.00D-01 BMatC= 2.69D+00 BMatP= 3.69D-01
 IDIUse=2 WtCom= 0.00D+00 WtEn= 1.00D+00
 Coeff-En:   0.000D+00 0.000D+00 0.785D+00 0.215D+00
 Coeff:      0.000D+00 0.000D+00 0.785D+00 0.215D+00
 Gap=     0.137 Goal=   None    Shift=    0.000
 RMSDP=1.20D-03 MaxDP=8.52D-01 DE= 1.76D+00 OVMax= 1.88D-01

 Cycle   5  Pass 1  IDiag  1:
 RMSU=  3.73D-04    CP:  1.00D+00  6.12D-01  7.73D-02  3.12D-01
 E= -4644.86259824458     Delta-E=       -2.016245006324 Rises=F Damp=F
 DIIS: error= 3.94D-03 at cycle   5 NSaved=   5.
 NSaved= 5 IEnMin= 5 EnMin= -4644.86259824458     IErMin= 5 ErrMin= 3.94D-03
 ErrMax= 3.94D-03  0.00D+00 EMaxC= 1.00D-01 BMatC= 1.70D-01 BMatP= 3.69D-01
 IDIUse=3 WtCom= 9.61D-01 WtEn= 3.94D-02
 Coeff-Com:  0.955D-03 0.172D-01 0.314D+00-0.628D-01 0.731D+00
 Coeff-En:   0.000D+00 0.000D+00 0.317D+00 0.000D+00 0.683D+00
 Coeff:      0.918D-03 0.165D-01 0.314D+00-0.604D-01 0.729D+00
 Gap=     0.129 Goal=   None    Shift=    0.000
 RMSDP=3.84D-04 MaxDP=1.22D-01 DE=-2.02D+00 OVMax= 6.52D-02

 Cycle   6  Pass 1  IDiag  1:
 RMSU=  8.58D-05    CP:  1.02D+00  5.84D-01  3.55D-01  1.66D-01  8.86D-01
 E= -4645.00152278146     Delta-E=       -0.138924536875 Rises=F Damp=F
 DIIS: error= 8.66D-04 at cycle   6 NSaved=   6.
 NSaved= 6 IEnMin= 6 EnMin= -4645.00152278146     IErMin= 6 ErrMin= 8.66D-04
 ErrMax= 8.66D-04  0.00D+00 EMaxC= 1.00D-01 BMatC= 5.08D-03 BMatP= 1.70D-01
 IDIUse=3 WtCom= 9.91D-01 WtEn= 8.66D-03
 Coeff-Com: -0.324D-02 0.116D-01 0.165D+00-0.638D-01 0.488D+00 0.403D+00
 Coeff-En:   0.000D+00 0.000D+00 0.000D+00 0.000D+00 0.000D+00 0.100D+01
 Coeff:     -0.322D-02 0.115D-01 0.163D+00-0.633D-01 0.483D+00 0.408D+00
 Gap=     0.123 Goal=   None    Shift=    0.000
 RMSDP=5.64D-05 MaxDP=2.00D-02 DE=-1.39D-01 OVMax= 1.47D-02

 Cycle   7  Pass 1  IDiag  1:
 RMSU=  3.76D-05    CP:  1.02D+00  5.84D-01  3.71D-01  1.47D-01  9.00D-01
                    CP:  6.40D-01
 E= -4645.00638318844     Delta-E=       -0.004860406983 Rises=F Damp=F
 DIIS: error= 1.37D-04 at cycle   7 NSaved=   7.
 NSaved= 7 IEnMin= 7 EnMin= -4645.00638318844     IErMin= 7 ErrMin= 1.37D-04
 ErrMax= 1.37D-04  0.00D+00 EMaxC= 1.00D-01 BMatC= 2.17D-04 BMatP= 5.08D-03
 IDIUse=3 WtCom= 9.99D-01 WtEn= 1.37D-03
 Coeff-Com: -0.151D-02 0.604D-02 0.610D-01-0.273D-01 0.182D+00 0.213D+00
 Coeff-Com:  0.567D+00
 Coeff-En:   0.000D+00 0.000D+00 0.000D+00 0.000D+00 0.000D+00 0.000D+00
 Coeff-En:   0.100D+01
 Coeff:     -0.151D-02 0.603D-02 0.609D-01-0.273D-01 0.181D+00 0.213D+00
 Coeff:      0.567D+00
 Gap=     0.124 Goal=   None    Shift=    0.000
 RMSDP=1.30D-05 MaxDP=4.24D-03 DE=-4.86D-03 OVMax= 3.11D-03

 Cycle   8  Pass 1  IDiag  1:
 RMSU=  9.49D-06    CP:  1.02D+00  5.83D-01  3.71D-01  1.49D-01  8.96D-01
                    CP:  6.71D-01  7.88D-01
 E= -4645.00654269145     Delta-E=       -0.000159503012 Rises=F Damp=F
 DIIS: error= 6.77D-05 at cycle   8 NSaved=   8.
 NSaved= 8 IEnMin= 8 EnMin= -4645.00654269145     IErMin= 8 ErrMin= 6.77D-05
 ErrMax= 6.77D-05  0.00D+00 EMaxC= 1.00D-01 BMatC= 4.18D-05 BMatP= 2.17D-04
 IDIUse=1 WtCom= 1.00D+00 WtEn= 0.00D+00
 Coeff-Com: -0.191D-03 0.589D-03 0.100D-01-0.499D-02 0.249D-01 0.597D-01
 Coeff-Com:  0.350D+00 0.560D+00
 Coeff:     -0.191D-03 0.589D-03 0.100D-01-0.499D-02 0.249D-01 0.597D-01
 Coeff:      0.350D+00 0.560D+00
 Gap=     0.124 Goal=   None    Shift=    0.000
 RMSDP=7.71D-06 MaxDP=2.88D-03 DE=-1.60D-04 OVMax= 1.58D-03

 Cycle   9  Pass 1  IDiag  1:
 RMSU=  3.34D-06    CP:  1.02D+00  5.84D-01  3.76D-01  1.47D-01  8.95D-01
                    CP:  6.69D-01  8.64D-01  7.98D-01
 E= -4645.00657946862     Delta-E=       -0.000036777166 Rises=F Damp=F
 DIIS: error= 1.71D-05 at cycle   9 NSaved=   9.
 NSaved= 9 IEnMin= 9 EnMin= -4645.00657946862     IErMin= 9 ErrMin= 1.71D-05
 ErrMax= 1.71D-05  0.00D+00 EMaxC= 1.00D-01 BMatC= 3.99D-06 BMatP= 4.18D-05
 IDIUse=1 WtCom= 1.00D+00 WtEn= 0.00D+00
 Coeff-Com:  0.424D-04-0.409D-03 0.338D-03-0.147D-03-0.272D-02 0.150D-01
 Coeff-Com:  0.147D+00 0.322D+00 0.519D+00
 Coeff:      0.424D-04-0.409D-03 0.338D-03-0.147D-03-0.272D-02 0.150D-01
 Coeff:      0.147D+00 0.322D+00 0.519D+00
 Gap=     0.124 Goal=   None    Shift=    0.000
 RMSDP=1.79D-06 MaxDP=5.42D-04 DE=-3.68D-05 OVMax= 3.67D-04

 Cycle  10  Pass 1  IDiag  1:
 RMSU=  9.54D-07    CP:  1.02D+00  5.84D-01  3.75D-01  1.47D-01  8.95D-01
                    CP:  6.74D-01  8.54D-01  8.09D-01  7.53D-01
 E= -4645.00658292040     Delta-E=       -0.000003451783 Rises=F Damp=F
 DIIS: error= 4.70D-06 at cycle  10 NSaved=  10.
 NSaved=10 IEnMin=10 EnMin= -4645.00658292040     IErMin=10 ErrMin= 4.70D-06
 ErrMax= 4.70D-06  0.00D+00 EMaxC= 1.00D-01 BMatC= 3.93D-07 BMatP= 3.99D-06
 IDIUse=1 WtCom= 1.00D+00 WtEn= 0.00D+00
 Coeff-Com:  0.213D-04-0.234D-03-0.549D-03 0.254D-03-0.322D-02 0.420D-02
 Coeff-Com:  0.555D-01 0.138D+00 0.302D+00 0.504D+00
 Coeff:      0.213D-04-0.234D-03-0.549D-03 0.254D-03-0.322D-02 0.420D-02
 Coeff:      0.555D-01 0.138D+00 0.302D+00 0.504D+00
 Gap=     0.124 Goal=   None    Shift=    0.000
 RMSDP=6.14D-07 MaxDP=1.53D-04 DE=-3.45D-06 OVMax= 2.61D-04

 Cycle  11  Pass 1  IDiag  1:
 RMSU=  4.39D-07    CP:  1.02D+00  5.84D-01  3.75D-01  1.47D-01  8.95D-01
                    CP:  6.74D-01  8.62D-01  8.01D-01  7.65D-01  8.23D-01
 E= -4645.00658322643     Delta-E=       -0.000000306029 Rises=F Damp=F
 DIIS: error= 3.03D-06 at cycle  11 NSaved=  11.
 NSaved=11 IEnMin=11 EnMin= -4645.00658322643     IErMin=11 ErrMin= 3.03D-06
 ErrMax= 3.03D-06  0.00D+00 EMaxC= 1.00D-01 BMatC= 6.51D-08 BMatP= 3.93D-07
 IDIUse=1 WtCom= 1.00D+00 WtEn= 0.00D+00
 Coeff-Com:  0.105D-05-0.512D-04-0.501D-03 0.177D-03-0.194D-02 0.923D-03
 Coeff-Com:  0.186D-01 0.508D-01 0.133D+00 0.326D+00 0.473D+00
 Coeff:      0.105D-05-0.512D-04-0.501D-03 0.177D-03-0.194D-02 0.923D-03
 Coeff:      0.186D-01 0.508D-01 0.133D+00 0.326D+00 0.473D+00
 Gap=     0.124 Goal=   None    Shift=    0.000
 RMSDP=1.93D-07 MaxDP=7.31D-05 DE=-3.06D-07 OVMax= 5.74D-05

 Cycle  12  Pass 1  IDiag  1:
 RMSU=  1.50D-07    CP:  1.02D+00  5.84D-01  3.75D-01  1.47D-01  8.95D-01
                    CP:  6.75D-01  8.61D-01  8.08D-01  7.70D-01  8.19D-01
                    CP:  8.61D-01
 E= -4645.00658328119     Delta-E=       -0.000000054761 Rises=F Damp=F
 DIIS: error= 1.08D-06 at cycle  12 NSaved=  12.
 NSaved=12 IEnMin=12 EnMin= -4645.00658328119     IErMin=12 ErrMin= 1.08D-06
 ErrMax= 1.08D-06  0.00D+00 EMaxC= 1.00D-01 BMatC= 7.40D-09 BMatP= 6.51D-08
 IDIUse=1 WtCom= 1.00D+00 WtEn= 0.00D+00
 Coeff-Com: -0.733D-05 0.193D-04-0.229D-03 0.671D-04-0.601D-03-0.242D-03
 Coeff-Com:  0.526D-03 0.388D-02 0.199D-01 0.987D-01 0.268D+00 0.610D+00
 Coeff:     -0.733D-05 0.193D-04-0.229D-03 0.671D-04-0.601D-03-0.242D-03
 Coeff:      0.526D-03 0.388D-02 0.199D-01 0.987D-01 0.268D+00 0.610D+00
 Gap=     0.124 Goal=   None    Shift=    0.000
 RMSDP=8.70D-08 MaxDP=1.96D-05 DE=-5.48D-08 OVMax= 3.18D-05

 Cycle  13  Pass 1  IDiag  1:
 RMSU=  5.41D-08    CP:  1.02D+00  5.84D-01  3.75D-01  1.47D-01  8.95D-01
                    CP:  6.74D-01  8.61D-01  8.08D-01  7.71D-01  8.41D-01
                    CP:  8.88D-01  8.36D-01
 E= -4645.00658328754     Delta-E=       -0.000000006346 Rises=F Damp=F
 DIIS: error= 3.60D-07 at cycle  13 NSaved=  13.
 NSaved=13 IEnMin=13 EnMin= -4645.00658328754     IErMin=13 ErrMin= 3.60D-07
 ErrMax= 3.60D-07  0.00D+00 EMaxC= 1.00D-01 BMatC= 1.44D-09 BMatP= 7.40D-09
 IDIUse=1 WtCom= 1.00D+00 WtEn= 0.00D+00
 Coeff-Com: -0.575D-05 0.171D-04-0.597D-04 0.135D-04-0.589D-04-0.226D-03
 Coeff-Com: -0.216D-02-0.465D-02-0.688D-02 0.149D-01 0.856D-01 0.372D+00
 Coeff-Com:  0.541D+00
 Coeff:     -0.575D-05 0.171D-04-0.597D-04 0.135D-04-0.589D-04-0.226D-03
 Coeff:     -0.216D-02-0.465D-02-0.688D-02 0.149D-01 0.856D-01 0.372D+00
 Coeff:      0.541D+00
 Gap=     0.124 Goal=   None    Shift=    0.000
 RMSDP=3.43D-08 MaxDP=7.42D-06 DE=-6.35D-09 OVMax= 1.10D-05

 Cycle  14  Pass 1  IDiag  1:
 RMSU=  2.26D-08    CP:  1.02D+00  5.84D-01  3.75D-01  1.47D-01  8.95D-01
                    CP:  6.74D-01  8.61D-01  8.08D-01  7.74D-01  8.44D-01
                    CP:  8.89D-01  8.96D-01  8.56D-01
 E= -4645.00658328898     Delta-E=       -0.000000001444 Rises=F Damp=F
 DIIS: error= 1.43D-07 at cycle  14 NSaved=  14.
 NSaved=14 IEnMin=14 EnMin= -4645.00658328898     IErMin=14 ErrMin= 1.43D-07
 ErrMax= 1.43D-07  0.00D+00 EMaxC= 1.00D-01 BMatC= 1.74D-10 BMatP= 1.44D-09
 IDIUse=1 WtCom= 1.00D+00 WtEn= 0.00D+00
 Coeff-Com: -0.257D-05 0.830D-05-0.696D-05-0.949D-06 0.409D-04-0.106D-03
 Coeff-Com: -0.137D-02-0.334D-02-0.723D-02-0.470D-02 0.975D-02 0.133D+00
 Coeff-Com:  0.325D+00 0.549D+00
 Coeff:     -0.257D-05 0.830D-05-0.696D-05-0.949D-06 0.409D-04-0.106D-03
 Coeff:     -0.137D-02-0.334D-02-0.723D-02-0.470D-02 0.975D-02 0.133D+00
 Coeff:      0.325D+00 0.549D+00
 Gap=     0.124 Goal=   None    Shift=    0.000
 RMSDP=1.45D-08 MaxDP=4.68D-06 DE=-1.44D-09 OVMax= 2.59D-06

 Cycle  15  Pass 1  IDiag  1:
 RMSU=  8.14D-09    CP:  1.02D+00  5.84D-01  3.75D-01  1.47D-01  8.95D-01
                    CP:  6.75D-01  8.61D-01  8.09D-01  7.75D-01  8.44D-01
                    CP:  8.98D-01  9.21D-01  8.73D-01  8.09D-01
 E= -4645.00658328948     Delta-E=       -0.000000000497 Rises=F Damp=F
 DIIS: error= 7.80D-08 at cycle  15 NSaved=  15.
 NSaved=15 IEnMin=15 EnMin= -4645.00658328948     IErMin=15 ErrMin= 7.80D-08
 ErrMax= 7.80D-08  0.00D+00 EMaxC= 1.00D-01 BMatC= 2.26D-11 BMatP= 1.74D-10
 IDIUse=1 WtCom= 1.00D+00 WtEn= 0.00D+00
 Coeff-Com: -0.686D-06 0.225D-05 0.337D-05-0.205D-05 0.284D-04-0.322D-04
 Coeff-Com: -0.476D-03-0.122D-02-0.313D-02-0.397D-02-0.599D-02 0.278D-01
 Coeff-Com:  0.120D+00 0.320D+00 0.547D+00
 Coeff:     -0.686D-06 0.225D-05 0.337D-05-0.205D-05 0.284D-04-0.322D-04
 Coeff:     -0.476D-03-0.122D-02-0.313D-02-0.397D-02-0.599D-02 0.278D-01
 Coeff:      0.120D+00 0.320D+00 0.547D+00
 Gap=     0.124 Goal=   None    Shift=    0.000
 RMSDP=4.45D-09 MaxDP=1.48D-06 DE=-4.97D-10 OVMax= 1.76D-06

 Cycle  16  Pass 1  IDiag  1:
 RMSU=  3.04D-09    CP:  1.02D+00  5.84D-01  3.75D-01  1.47D-01  8.95D-01
                    CP:  6.74D-01  8.61D-01  8.09D-01  7.74D-01  8.45D-01
                    CP:  9.00D-01  9.20D-01  8.86D-01  8.27D-01  8.80D-01
 E= -4645.00658328905     Delta-E=        0.000000000435 Rises=F Damp=F
 DIIS: error= 2.41D-08 at cycle  16 NSaved=  16.
 NSaved=16 IEnMin=15 EnMin= -4645.00658328948     IErMin=16 ErrMin= 2.41D-08
 ErrMax= 2.41D-08  0.00D+00 EMaxC= 1.00D-01 BMatC= 5.32D-12 BMatP= 2.26D-11
 IDIUse=1 WtCom= 1.00D+00 WtEn= 0.00D+00
 Coeff-Com: -0.367D-07 0.270D-06 0.361D-05-0.133D-05 0.132D-04-0.619D-05
 Coeff-Com: -0.115D-03-0.309D-03-0.101D-02-0.185D-02-0.585D-02-0.216D-02
 Coeff-Com:  0.313D-01 0.128D+00 0.365D+00 0.487D+00
 Coeff:     -0.367D-07 0.270D-06 0.361D-05-0.133D-05 0.132D-04-0.619D-05
 Coeff:     -0.115D-03-0.309D-03-0.101D-02-0.185D-02-0.585D-02-0.216D-02
 Coeff:      0.313D-01 0.128D+00 0.365D+00 0.487D+00
 Gap=     0.124 Goal=   None    Shift=    0.000
 RMSDP=2.08D-09 MaxDP=5.79D-07 DE= 4.35D-10 OVMax= 4.17D-07

 Error on total polarization charges =  0.07895
 SCF Done:  E(RB3LYP) =  -4645.00658329     A.U. after   16 cycles
            NFock= 16  Conv=0.21D-08     -V/T= 2.0457
 KE= 4.441838304476D+03 PE=-4.172636211958D+04 EE= 1.719031817026D+04
 SMD-CDS (non-electrostatic) energy       (kcal/mol) =     -13.85
 (included in total energy above)
 Leave Link  502 at Tue Jun 11 19:37:05 2024, MaxMem=  8589934592 cpu:          184251.3 elap:            5842.6
 (Enter /opt/packages/gaussian/g16RevC.01/g16/l601.exe)
 Copying SCF densities to generalized density rwf, IOpCl= 0 IROHF=0.
 Hyperfine terms turned off by default for NAtoms > 100.

 **********************************************************************

            Population analysis using the SCF Density.

 **********************************************************************

 Alpha  occ. eigenvalues --  -89.04246 -89.04188 -24.71971 -24.71939 -24.71555
 Alpha  occ. eigenvalues --  -24.71536 -24.71526 -24.71481 -24.69498 -19.14051
 Alpha  occ. eigenvalues --  -19.10642 -19.10586 -19.10464 -19.10255 -14.38212
 Alpha  occ. eigenvalues --  -14.32372 -14.31054 -10.42622 -10.42607 -10.28269
 Alpha  occ. eigenvalues --  -10.26405 -10.25940 -10.22755 -10.22444 -10.22391
 Alpha  occ. eigenvalues --  -10.22025 -10.21964 -10.21879 -10.21844 -10.21763
 Alpha  occ. eigenvalues --  -10.21762 -10.21291 -10.21267 -10.21219 -10.21207
 Alpha  occ. eigenvalues --  -10.21173 -10.20816 -10.20766 -10.20147 -10.19916
 Alpha  occ. eigenvalues --  -10.19887 -10.19761 -10.19600 -10.19518 -10.19401
 Alpha  occ. eigenvalues --  -10.19365 -10.19267 -10.19049 -10.19010 -10.18959
 Alpha  occ. eigenvalues --  -10.18933 -10.18889 -10.18869 -10.18827 -10.18809
 Alpha  occ. eigenvalues --  -10.18802 -10.18547 -10.18257 -10.18243 -10.18188
 Alpha  occ. eigenvalues --  -10.18186 -10.18157 -10.18128 -10.18105 -10.18100
 Alpha  occ. eigenvalues --  -10.18074 -10.18043 -10.18022 -10.17989 -10.17962
 Alpha  occ. eigenvalues --  -10.17930 -10.17918 -10.17896 -10.17857 -10.17755
 Alpha  occ. eigenvalues --  -10.17539 -10.16824  -8.08826  -8.08763  -6.83838
 Alpha  occ. eigenvalues --   -6.05160  -6.05102  -6.05049  -6.05013  -6.04985
 Alpha  occ. eigenvalues --   -6.04950  -4.86358  -4.85073  -4.85058  -1.91152
 Alpha  occ. eigenvalues --   -1.90745  -1.90727  -1.89631  -1.89630  -1.32639
 Alpha  occ. eigenvalues --   -1.32635  -1.23714  -1.23618  -1.23605  -1.23244
 Alpha  occ. eigenvalues --   -1.23219  -1.12602  -1.11142  -1.06096  -1.01103
 Alpha  occ. eigenvalues --   -1.00360  -1.00230  -0.95105  -0.91140  -0.89657
 Alpha  occ. eigenvalues --   -0.88599  -0.88388  -0.88357  -0.87934  -0.85604
 Alpha  occ. eigenvalues --   -0.84589  -0.84284  -0.84263  -0.82008  -0.80862
 Alpha  occ. eigenvalues --   -0.79721  -0.79553  -0.79133  -0.78738  -0.78585
 Alpha  occ. eigenvalues --   -0.78364  -0.77447  -0.76771  -0.76709  -0.75806
 Alpha  occ. eigenvalues --   -0.75098  -0.74952  -0.74773  -0.73899  -0.73024
 Alpha  occ. eigenvalues --   -0.72684  -0.72124  -0.71501  -0.70762  -0.70630
 Alpha  occ. eigenvalues --   -0.68506  -0.68365  -0.67453  -0.66639  -0.65329
 Alpha  occ. eigenvalues --   -0.65109  -0.65012  -0.63949  -0.63725  -0.63660
 Alpha  occ. eigenvalues --   -0.63222  -0.62931  -0.62867  -0.62464  -0.61951
 Alpha  occ. eigenvalues --   -0.61167  -0.60273  -0.60261  -0.59971  -0.59844
 Alpha  occ. eigenvalues --   -0.59834  -0.59005  -0.58527  -0.58201  -0.57828
 Alpha  occ. eigenvalues --   -0.57752  -0.57597  -0.55407  -0.55299  -0.55250
 Alpha  occ. eigenvalues --   -0.54362  -0.53381  -0.53318  -0.52954  -0.52195
 Alpha  occ. eigenvalues --   -0.51826  -0.51545  -0.51479  -0.50736  -0.50253
 Alpha  occ. eigenvalues --   -0.49957  -0.49660  -0.49183  -0.49048  -0.48788
 Alpha  occ. eigenvalues --   -0.48444  -0.48408  -0.48163  -0.48112  -0.47942
 Alpha  occ. eigenvalues --   -0.47889  -0.47559  -0.47413  -0.47317  -0.47289
 Alpha  occ. eigenvalues --   -0.47037  -0.46844  -0.46480  -0.46208  -0.46068
 Alpha  occ. eigenvalues --   -0.45792  -0.45631  -0.45514  -0.45336  -0.45125
 Alpha  occ. eigenvalues --   -0.45033  -0.44941  -0.44673  -0.44387  -0.44350
 Alpha  occ. eigenvalues --   -0.44270  -0.44097  -0.43587  -0.43309  -0.43209
 Alpha  occ. eigenvalues --   -0.42998  -0.42918  -0.42790  -0.42729  -0.42436
 Alpha  occ. eigenvalues --   -0.42065  -0.41929  -0.41906  -0.41444  -0.41353
 Alpha  occ. eigenvalues --   -0.41095  -0.40970  -0.40800  -0.40648  -0.40453
 Alpha  occ. eigenvalues --   -0.40143  -0.39766  -0.39677  -0.39323  -0.39249
 Alpha  occ. eigenvalues --   -0.38983  -0.38266  -0.37956  -0.37889  -0.37693
 Alpha  occ. eigenvalues --   -0.37124  -0.36958  -0.36919  -0.36829  -0.36644
 Alpha  occ. eigenvalues --   -0.36413  -0.36330  -0.36265  -0.36115  -0.36045
 Alpha  occ. eigenvalues --   -0.35852  -0.35690  -0.35282  -0.35045  -0.34938
 Alpha  occ. eigenvalues --   -0.34258  -0.34099  -0.33857  -0.33630  -0.33207
 Alpha  occ. eigenvalues --   -0.32964  -0.32674  -0.31774  -0.31702  -0.31286
 Alpha  occ. eigenvalues --   -0.30947  -0.30813  -0.29314  -0.29158  -0.28853
 Alpha  occ. eigenvalues --   -0.28848  -0.28280  -0.28008  -0.27601  -0.27501
 Alpha  occ. eigenvalues --   -0.27353  -0.27181  -0.26766  -0.26681  -0.26460
 Alpha  occ. eigenvalues --   -0.26336  -0.26069  -0.25575  -0.24823  -0.24565
 Alpha  occ. eigenvalues --   -0.23977  -0.23567  -0.22946  -0.21999  -0.21586
 Alpha virt. eigenvalues --   -0.09197  -0.07387  -0.07299  -0.06269  -0.05417
 Alpha virt. eigenvalues --   -0.05190  -0.03762  -0.03317  -0.03213  -0.02393
 Alpha virt. eigenvalues --   -0.02084  -0.01816  -0.01590  -0.00157   0.00138
 Alpha virt. eigenvalues --    0.00782   0.00948   0.03273   0.03845   0.04286
 Alpha virt. eigenvalues --    0.04390   0.04720   0.04808   0.04991   0.05066
 Alpha virt. eigenvalues --    0.05395   0.05659   0.05871   0.05998   0.06307
 Alpha virt. eigenvalues --    0.06739   0.06960   0.07115   0.07252   0.07451
 Alpha virt. eigenvalues --    0.07544   0.07653   0.07946   0.08138   0.08558
 Alpha virt. eigenvalues --    0.08629   0.08811   0.08988   0.09044   0.09313
 Alpha virt. eigenvalues --    0.09482   0.09762   0.09958   0.10079   0.10156
 Alpha virt. eigenvalues --    0.10229   0.10336   0.10551   0.10825   0.11004
 Alpha virt. eigenvalues --    0.11229   0.11398   0.11588   0.11689   0.11849
 Alpha virt. eigenvalues --    0.11995   0.12223   0.12422   0.12491   0.12648
 Alpha virt. eigenvalues --    0.12737   0.12832   0.13016   0.13227   0.13277
 Alpha virt. eigenvalues --    0.13453   0.13766   0.13900   0.14084   0.14232
 Alpha virt. eigenvalues --    0.14411   0.14545   0.14635   0.14727   0.15051
 Alpha virt. eigenvalues --    0.15079   0.15233   0.15327   0.15487   0.15896
 Alpha virt. eigenvalues --    0.15918   0.16285   0.16360   0.16423   0.16460
 Alpha virt. eigenvalues --    0.16771   0.17168   0.17277   0.17528   0.17738
 Alpha virt. eigenvalues --    0.17851   0.18026   0.18385   0.18501   0.18712
 Alpha virt. eigenvalues --    0.18852   0.18979   0.19255   0.19421   0.19482
 Alpha virt. eigenvalues --    0.19659   0.19801   0.19944   0.20075   0.20238
 Alpha virt. eigenvalues --    0.20431   0.20508   0.20600   0.20651   0.20869
 Alpha virt. eigenvalues --    0.20980   0.21276   0.21438   0.21478   0.21563
 Alpha virt. eigenvalues --    0.21726   0.21846   0.21957   0.22077   0.22187
 Alpha virt. eigenvalues --    0.22374   0.22628   0.22801   0.22893   0.23026
 Alpha virt. eigenvalues --    0.23128   0.23279   0.23408   0.23670   0.23835
 Alpha virt. eigenvalues --    0.23992   0.24097   0.24193   0.24371   0.24425
 Alpha virt. eigenvalues --    0.24739   0.24768   0.24968   0.25132   0.25223
 Alpha virt. eigenvalues --    0.25318   0.25476   0.25586   0.25811   0.26050
 Alpha virt. eigenvalues --    0.26194   0.26317   0.26490   0.26635   0.26775
 Alpha virt. eigenvalues --    0.27035   0.27172   0.27338   0.27396   0.27707
 Alpha virt. eigenvalues --    0.27881   0.28030   0.28251   0.28483   0.28525
 Alpha virt. eigenvalues --    0.28627   0.28685   0.28920   0.28984   0.29196
 Alpha virt. eigenvalues --    0.29287   0.29444   0.29462   0.29567   0.29834
 Alpha virt. eigenvalues --    0.29864   0.30056   0.30197   0.30275   0.30420
 Alpha virt. eigenvalues --    0.30523   0.30652   0.30726   0.31066   0.31254
 Alpha virt. eigenvalues --    0.31360   0.31445   0.31597   0.31705   0.31824
 Alpha virt. eigenvalues --    0.32084   0.32246   0.32317   0.32477   0.32594
 Alpha virt. eigenvalues --    0.32911   0.33056   0.33213   0.33374   0.33525
 Alpha virt. eigenvalues --    0.33598   0.33824   0.33988   0.34230   0.34245
 Alpha virt. eigenvalues --    0.34369   0.34500   0.34582   0.34741   0.34838
 Alpha virt. eigenvalues --    0.35124   0.35263   0.35519   0.35717   0.35938
 Alpha virt. eigenvalues --    0.35989   0.36235   0.36353   0.36394   0.36607
 Alpha virt. eigenvalues --    0.36723   0.36791   0.36904   0.37231   0.37259
 Alpha virt. eigenvalues --    0.37584   0.37648   0.37845   0.37929   0.38175
 Alpha virt. eigenvalues --    0.38296   0.38405   0.38601   0.38734   0.38807
 Alpha virt. eigenvalues --    0.38865   0.39143   0.39230   0.39281   0.39501
 Alpha virt. eigenvalues --    0.39597   0.39782   0.39896   0.39967   0.40043
 Alpha virt. eigenvalues --    0.40251   0.40440   0.40498   0.40686   0.41040
 Alpha virt. eigenvalues --    0.41145   0.41296   0.41400   0.41595   0.41688
 Alpha virt. eigenvalues --    0.41781   0.41958   0.42246   0.42271   0.42384
 Alpha virt. eigenvalues --    0.42546   0.42677   0.42769   0.42963   0.43061
 Alpha virt. eigenvalues --    0.43276   0.43309   0.43366   0.43573   0.43753
 Alpha virt. eigenvalues --    0.43873   0.43955   0.44102   0.44152   0.44248
 Alpha virt. eigenvalues --    0.44356   0.44623   0.44901   0.44979   0.45153
 Alpha virt. eigenvalues --    0.45285   0.45368   0.45529   0.45668   0.45840
 Alpha virt. eigenvalues --    0.45955   0.46127   0.46243   0.46447   0.46606
 Alpha virt. eigenvalues --    0.46766   0.46882   0.46958   0.47078   0.47406
 Alpha virt. eigenvalues --    0.47628   0.47698   0.47914   0.48074   0.48202
 Alpha virt. eigenvalues --    0.48352   0.48386   0.48553   0.48740   0.48815
 Alpha virt. eigenvalues --    0.49065   0.49314   0.49538   0.49612   0.49726
 Alpha virt. eigenvalues --    0.49850   0.49950   0.50069   0.50295   0.50534
 Alpha virt. eigenvalues --    0.50608   0.50743   0.50869   0.50941   0.50981
 Alpha virt. eigenvalues --    0.51327   0.51468   0.51651   0.51937   0.51976
 Alpha virt. eigenvalues --    0.52174   0.52242   0.52297   0.52527   0.52709
 Alpha virt. eigenvalues --    0.52798   0.53140   0.53213   0.53270   0.53485
 Alpha virt. eigenvalues --    0.53681   0.53899   0.54050   0.54270   0.54644
 Alpha virt. eigenvalues --    0.54923   0.55007   0.55065   0.55257   0.55412
 Alpha virt. eigenvalues --    0.55659   0.55916   0.56184   0.56231   0.56561
 Alpha virt. eigenvalues --    0.56730   0.56847   0.57185   0.57270   0.57357
 Alpha virt. eigenvalues --    0.57872   0.57948   0.58119   0.58250   0.58465
 Alpha virt. eigenvalues --    0.58752   0.58975   0.59095   0.59458   0.59727
 Alpha virt. eigenvalues --    0.59955   0.60194   0.60451   0.60526   0.60698
 Alpha virt. eigenvalues --    0.60848   0.60988   0.61294   0.61414   0.61642
 Alpha virt. eigenvalues --    0.61941   0.62182   0.62292   0.62390   0.62704
 Alpha virt. eigenvalues --    0.62813   0.62987   0.63066   0.63308   0.63562
 Alpha virt. eigenvalues --    0.63671   0.63839   0.64040   0.64223   0.64468
 Alpha virt. eigenvalues --    0.64498   0.64768   0.64893   0.65072   0.65205
 Alpha virt. eigenvalues --    0.65275   0.65489   0.65572   0.65813   0.65973
 Alpha virt. eigenvalues --    0.66126   0.66170   0.66338   0.66446   0.66653
 Alpha virt. eigenvalues --    0.67037   0.67098   0.67284   0.67413   0.67671
 Alpha virt. eigenvalues --    0.67701   0.67766   0.67914   0.68005   0.68205
 Alpha virt. eigenvalues --    0.68260   0.68405   0.68626   0.68760   0.68895
 Alpha virt. eigenvalues --    0.69004   0.69143   0.69224   0.69399   0.69547
 Alpha virt. eigenvalues --    0.69663   0.69856   0.69984   0.70123   0.70351
 Alpha virt. eigenvalues --    0.70469   0.70690   0.70916   0.70975   0.71143
 Alpha virt. eigenvalues --    0.71162   0.71315   0.71417   0.71540   0.71836
 Alpha virt. eigenvalues --    0.72219   0.72419   0.72454   0.72654   0.72693
 Alpha virt. eigenvalues --    0.73089   0.73202   0.73551   0.73686   0.73854
 Alpha virt. eigenvalues --    0.74000   0.74215   0.74379   0.74502   0.74613
 Alpha virt. eigenvalues --    0.74828   0.74888   0.75142   0.75314   0.75419
 Alpha virt. eigenvalues --    0.75552   0.75747   0.75812   0.76171   0.76252
 Alpha virt. eigenvalues --    0.76527   0.76593   0.76814   0.76927   0.77033
 Alpha virt. eigenvalues --    0.77457   0.77685   0.77785   0.77941   0.78117
 Alpha virt. eigenvalues --    0.78389   0.78577   0.78675   0.78756   0.78851
 Alpha virt. eigenvalues --    0.78992   0.79624   0.79667   0.79779   0.79902
 Alpha virt. eigenvalues --    0.80384   0.80410   0.80581   0.80824   0.80928
 Alpha virt. eigenvalues --    0.80967   0.81082   0.81352   0.81506   0.81576
 Alpha virt. eigenvalues --    0.81813   0.82097   0.82202   0.82517   0.82665
 Alpha virt. eigenvalues --    0.82919   0.83040   0.83255   0.83418   0.83521
 Alpha virt. eigenvalues --    0.83598   0.83848   0.84084   0.84133   0.84557
 Alpha virt. eigenvalues --    0.84723   0.84744   0.84873   0.85132   0.85215
 Alpha virt. eigenvalues --    0.85486   0.85599   0.85916   0.85982   0.86134
 Alpha virt. eigenvalues --    0.86239   0.86459   0.86623   0.86906   0.86968
 Alpha virt. eigenvalues --    0.87237   0.87319   0.87488   0.87772   0.87861
 Alpha virt. eigenvalues --    0.87950   0.88255   0.88704   0.88910   0.89076
 Alpha virt. eigenvalues --    0.89311   0.89430   0.89561   0.89607   0.89901
 Alpha virt. eigenvalues --    0.90137   0.90387   0.90446   0.90578   0.90811
 Alpha virt. eigenvalues --    0.91045   0.91169   0.91291   0.91579   0.91691
 Alpha virt. eigenvalues --    0.91906   0.91999   0.92256   0.92574   0.92658
 Alpha virt. eigenvalues --    0.92705   0.93004   0.93114   0.93376   0.93589
 Alpha virt. eigenvalues --    0.93758   0.93882   0.94119   0.94192   0.94287
 Alpha virt. eigenvalues --    0.94541   0.94594   0.94954   0.95185   0.95426
 Alpha virt. eigenvalues --    0.95450   0.95701   0.95841   0.96089   0.96189
 Alpha virt. eigenvalues --    0.96338   0.96443   0.96571   0.96726   0.96904
 Alpha virt. eigenvalues --    0.97328   0.97518   0.97558   0.97720   0.97823
 Alpha virt. eigenvalues --    0.97961   0.98244   0.98418   0.98542   0.98749
 Alpha virt. eigenvalues --    0.98944   0.99040   0.99133   0.99526   0.99554
 Alpha virt. eigenvalues --    0.99833   1.00029   1.00310   1.00462   1.00603
 Alpha virt. eigenvalues --    1.00888   1.01068   1.01399   1.01613   1.01707
 Alpha virt. eigenvalues --    1.01851   1.02076   1.02495   1.02571   1.03009
 Alpha virt. eigenvalues --    1.03127   1.03192   1.03383   1.03708   1.03822
 Alpha virt. eigenvalues --    1.03972   1.04214   1.04372   1.04504   1.04744
 Alpha virt. eigenvalues --    1.05102   1.05165   1.05487   1.05739   1.06010
 Alpha virt. eigenvalues --    1.06333   1.06467   1.06698   1.06811   1.06864
 Alpha virt. eigenvalues --    1.07085   1.07170   1.07252   1.07604   1.07804
 Alpha virt. eigenvalues --    1.08000   1.08088   1.08312   1.08648   1.08768
 Alpha virt. eigenvalues --    1.08989   1.09162   1.09448   1.09555   1.09798
 Alpha virt. eigenvalues --    1.09908   1.09956   1.10095   1.10548   1.10870
 Alpha virt. eigenvalues --    1.10991   1.11268   1.11354   1.11522   1.11739
 Alpha virt. eigenvalues --    1.11786   1.12185   1.12323   1.12738   1.12880
 Alpha virt. eigenvalues --    1.13011   1.13136   1.13542   1.13590   1.13705
 Alpha virt. eigenvalues --    1.13938   1.14000   1.14202   1.14304   1.14678
 Alpha virt. eigenvalues --    1.14895   1.15061   1.15104   1.15268   1.15772
 Alpha virt. eigenvalues --    1.15964   1.16025   1.16173   1.16239   1.16488
 Alpha virt. eigenvalues --    1.16691   1.16829   1.16894   1.17215   1.17350
 Alpha virt. eigenvalues --    1.17481   1.17709   1.17934   1.18068   1.18131
 Alpha virt. eigenvalues --    1.18361   1.18515   1.18900   1.19114   1.19295
 Alpha virt. eigenvalues --    1.19418   1.19660   1.19981   1.20118   1.20350
 Alpha virt. eigenvalues --    1.20540   1.20896   1.21110   1.21232   1.21416
 Alpha virt. eigenvalues --    1.21665   1.21763   1.22067   1.22249   1.22345
 Alpha virt. eigenvalues --    1.22484   1.22607   1.22926   1.23140   1.23404
 Alpha virt. eigenvalues --    1.23460   1.23867   1.23979   1.24303   1.24649
 Alpha virt. eigenvalues --    1.24739   1.24916   1.25205   1.25365   1.25540
 Alpha virt. eigenvalues --    1.25683   1.25711   1.26164   1.26329   1.26668
 Alpha virt. eigenvalues --    1.26881   1.27049   1.27099   1.27284   1.27506
 Alpha virt. eigenvalues --    1.27571   1.27898   1.28001   1.28109   1.28426
 Alpha virt. eigenvalues --    1.28540   1.28779   1.28999   1.29180   1.29208
 Alpha virt. eigenvalues --    1.29657   1.29707   1.29848   1.30063   1.30117
 Alpha virt. eigenvalues --    1.30413   1.30462   1.30638   1.30808   1.31241
 Alpha virt. eigenvalues --    1.31379   1.31690   1.31768   1.31993   1.32158
 Alpha virt. eigenvalues --    1.32371   1.32498   1.32590   1.32602   1.33099
 Alpha virt. eigenvalues --    1.33162   1.33377   1.33466   1.33706   1.33748
 Alpha virt. eigenvalues --    1.34053   1.34369   1.34458   1.34681   1.34858
 Alpha virt. eigenvalues --    1.34890   1.35115   1.35410   1.35505   1.35650
 Alpha virt. eigenvalues --    1.35903   1.36044   1.36168   1.36373   1.36547
 Alpha virt. eigenvalues --    1.36812   1.36906   1.37034   1.37179   1.37528
 Alpha virt. eigenvalues --    1.37681   1.37870   1.38060   1.38213   1.38371
 Alpha virt. eigenvalues --    1.38625   1.38849   1.38969   1.39266   1.39463
 Alpha virt. eigenvalues --    1.39654   1.39840   1.40140   1.40293   1.40340
 Alpha virt. eigenvalues --    1.40464   1.40726   1.40962   1.41087   1.41497
 Alpha virt. eigenvalues --    1.41531   1.41761   1.42089   1.42293   1.42541
 Alpha virt. eigenvalues --    1.42790   1.42835   1.42971   1.43080   1.43387
 Alpha virt. eigenvalues --    1.43539   1.43847   1.44031   1.44230   1.44381
 Alpha virt. eigenvalues --    1.44567   1.44680   1.45041   1.45046   1.45408
 Alpha virt. eigenvalues --    1.45490   1.45642   1.45895   1.46241   1.46416
 Alpha virt. eigenvalues --    1.46614   1.46854   1.47006   1.47324   1.47365
 Alpha virt. eigenvalues --    1.47647   1.47773   1.48012   1.48250   1.48486
 Alpha virt. eigenvalues --    1.48636   1.48708   1.49034   1.49217   1.49469
 Alpha virt. eigenvalues --    1.49481   1.50133   1.50297   1.50634   1.50685
 Alpha virt. eigenvalues --    1.51140   1.51445   1.51598   1.51801   1.52079
 Alpha virt. eigenvalues --    1.52271   1.52626   1.52737   1.52902   1.53069
 Alpha virt. eigenvalues --    1.53272   1.53592   1.53797   1.54081   1.54385
 Alpha virt. eigenvalues --    1.54614   1.54683   1.54856   1.55199   1.55292
 Alpha virt. eigenvalues --    1.55497   1.55814   1.55989   1.56077   1.56484
 Alpha virt. eigenvalues --    1.56579   1.57084   1.57371   1.57435   1.57673
 Alpha virt. eigenvalues --    1.57741   1.57930   1.58267   1.58369   1.58560
 Alpha virt. eigenvalues --    1.58724   1.59036   1.59406   1.59556   1.59898
 Alpha virt. eigenvalues --    1.60188   1.60575   1.60679   1.60956   1.61081
 Alpha virt. eigenvalues --    1.61291   1.61444   1.61784   1.61868   1.62112
 Alpha virt. eigenvalues --    1.62534   1.62657   1.62858   1.62945   1.63200
 Alpha virt. eigenvalues --    1.63352   1.63700   1.64143   1.64364   1.64614
 Alpha virt. eigenvalues --    1.64822   1.64965   1.65151   1.65291   1.65459
 Alpha virt. eigenvalues --    1.65636   1.65985   1.66038   1.66434   1.66561
 Alpha virt. eigenvalues --    1.66681   1.66933   1.66963   1.67468   1.67501
 Alpha virt. eigenvalues --    1.67728   1.67802   1.68085   1.68211   1.68535
 Alpha virt. eigenvalues --    1.68745   1.68983   1.69011   1.69168   1.69462
 Alpha virt. eigenvalues --    1.69777   1.69884   1.70028   1.70152   1.70395
 Alpha virt. eigenvalues --    1.70643   1.70867   1.71030   1.71245   1.71456
 Alpha virt. eigenvalues --    1.71684   1.72109   1.72194   1.72643   1.72968
 Alpha virt. eigenvalues --    1.73001   1.73152   1.73422   1.73896   1.74008
 Alpha virt. eigenvalues --    1.74183   1.74513   1.74633   1.74973   1.75258
 Alpha virt. eigenvalues --    1.75441   1.75613   1.75865   1.75998   1.76384
 Alpha virt. eigenvalues --    1.76482   1.76629   1.76853   1.77198   1.77447
 Alpha virt. eigenvalues --    1.77746   1.77789   1.78337   1.78420   1.78579
 Alpha virt. eigenvalues --    1.78924   1.79133   1.79476   1.79664   1.79918
 Alpha virt. eigenvalues --    1.79997   1.80260   1.80689   1.80899   1.81060
 Alpha virt. eigenvalues --    1.81493   1.81693   1.82069   1.82115   1.82616
 Alpha virt. eigenvalues --    1.82866   1.83191   1.83811   1.83973   1.84279
 Alpha virt. eigenvalues --    1.84402   1.84538   1.84613   1.84971   1.85120
 Alpha virt. eigenvalues --    1.85167   1.85735   1.85963   1.86332   1.86576
 Alpha virt. eigenvalues --    1.86672   1.86742   1.86866   1.87319   1.87664
 Alpha virt. eigenvalues --    1.87865   1.88199   1.88660   1.88799   1.89033
 Alpha virt. eigenvalues --    1.89173   1.89359   1.90074   1.90132   1.90633
 Alpha virt. eigenvalues --    1.91064   1.91421   1.91567   1.92091   1.92465
 Alpha virt. eigenvalues --    1.92833   1.93052   1.93416   1.93701   1.93784
 Alpha virt. eigenvalues --    1.94017   1.94254   1.94651   1.94773   1.95010
 Alpha virt. eigenvalues --    1.95640   1.95774   1.95872   1.96136   1.96410
 Alpha virt. eigenvalues --    1.96668   1.96967   1.97235   1.97574   1.97839
 Alpha virt. eigenvalues --    1.98165   1.98311   1.98515   1.98785   1.99072
 Alpha virt. eigenvalues --    1.99364   1.99515   1.99701   2.00121   2.00474
 Alpha virt. eigenvalues --    2.00602   2.01008   2.01089   2.01390   2.01688
 Alpha virt. eigenvalues --    2.02359   2.02411   2.02914   2.03089   2.03145
 Alpha virt. eigenvalues --    2.03668   2.03922   2.04047   2.04345   2.04669
 Alpha virt. eigenvalues --    2.04867   2.05142   2.05327   2.05601   2.05928
 Alpha virt. eigenvalues --    2.06076   2.06311   2.06510   2.06862   2.07342
 Alpha virt. eigenvalues --    2.07374   2.07718   2.07829   2.08138   2.08484
 Alpha virt. eigenvalues --    2.08691   2.08783   2.09273   2.09457   2.09659
 Alpha virt. eigenvalues --    2.09782   2.10027   2.10162   2.10317   2.10942
 Alpha virt. eigenvalues --    2.11111   2.11451   2.11550   2.11639   2.12188
 Alpha virt. eigenvalues --    2.12279   2.12589   2.12729   2.12838   2.12916
 Alpha virt. eigenvalues --    2.13571   2.13724   2.13776   2.13980   2.14376
 Alpha virt. eigenvalues --    2.14672   2.14877   2.15088   2.15510   2.15746
 Alpha virt. eigenvalues --    2.16015   2.16393   2.16625   2.17125   2.17637
 Alpha virt. eigenvalues --    2.17719   2.18015   2.18516   2.18973   2.19167
 Alpha virt. eigenvalues --    2.19358   2.19731   2.20061   2.20383   2.20760
 Alpha virt. eigenvalues --    2.21114   2.21600   2.21800   2.21851   2.22457
 Alpha virt. eigenvalues --    2.22793   2.23117   2.23606   2.23816   2.24091
 Alpha virt. eigenvalues --    2.24643   2.25024   2.25113   2.25589   2.26001
 Alpha virt. eigenvalues --    2.26054   2.26244   2.26405   2.26801   2.26870
 Alpha virt. eigenvalues --    2.27026   2.27559   2.28066   2.28329   2.28686
 Alpha virt. eigenvalues --    2.28813   2.28933   2.29042   2.29280   2.29509
 Alpha virt. eigenvalues --    2.30334   2.30420   2.30786   2.31176   2.31460
 Alpha virt. eigenvalues --    2.31760   2.32098   2.32357   2.32532   2.32753
 Alpha virt. eigenvalues --    2.33429   2.33636   2.33857   2.34179   2.34462
 Alpha virt. eigenvalues --    2.34490   2.34687   2.34929   2.35282   2.35506
 Alpha virt. eigenvalues --    2.35985   2.36058   2.36308   2.36751   2.37136
 Alpha virt. eigenvalues --    2.37256   2.37699   2.37886   2.38086   2.38269
 Alpha virt. eigenvalues --    2.38384   2.38713   2.39018   2.39191   2.39309
 Alpha virt. eigenvalues --    2.39827   2.39935   2.40231   2.40367   2.40524
 Alpha virt. eigenvalues --    2.40721   2.41051   2.41139   2.41370   2.41798
 Alpha virt. eigenvalues --    2.42010   2.42400   2.42430   2.42754   2.42987
 Alpha virt. eigenvalues --    2.43504   2.43850   2.44149   2.44294   2.44395
 Alpha virt. eigenvalues --    2.44626   2.45631   2.45943   2.46061   2.46624
 Alpha virt. eigenvalues --    2.46680   2.46987   2.47823   2.48364   2.48819
 Alpha virt. eigenvalues --    2.49502   2.49576   2.50115   2.50236   2.50726
 Alpha virt. eigenvalues --    2.51219   2.51327   2.51636   2.51787   2.52260
 Alpha virt. eigenvalues --    2.52609   2.53088   2.53361   2.53588   2.53991
 Alpha virt. eigenvalues --    2.54462   2.55132   2.55257   2.55636   2.55895
 Alpha virt. eigenvalues --    2.56212   2.56567   2.56943   2.57040   2.57466
 Alpha virt. eigenvalues --    2.57832   2.58044   2.58359   2.58829   2.59036
 Alpha virt. eigenvalues --    2.59410   2.59717   2.60097   2.60327   2.60531
[...]
 Alpha virt. eigenvalues --    4.51870   4.51928   4.52572   4.52739   4.53191
 Alpha virt. eigenvalues --    4.53645   4.53806   4.54101   4.55025   4.55458
 Alpha virt. eigenvalues --    4.55827   4.56098   4.56312   4.56686   4.57086
 Alpha virt. eigenvalues --    4.57495   4.57967   4.58059   4.58664   4.58945
 Alpha virt. eigenvalues --    4.59289   4.60332   4.60542   4.60872   4.61623
 Alpha virt. eigenvalues --    4.61633   4.62614   4.63312   4.63412   4.63904
 Alpha virt. eigenvalues --    4.64236   4.64292   4.64668   4.64813   4.65022
 Alpha virt. eigenvalues --    4.65192   4.65377   4.65565   4.65721   4.65734
 Alpha virt. eigenvalues --    4.66112   4.66553   4.66855   4.66950   4.67414
 Alpha virt. eigenvalues --    4.67793   4.68131   4.68438   4.68582   4.69303
 Alpha virt. eigenvalues --    4.69493   4.69858   4.69957   4.70510   4.70560
 Alpha virt. eigenvalues --    4.71114   4.71182   4.71586   4.71928   4.71997
 Alpha virt. eigenvalues --    4.72510   4.72694   4.72987   4.73346   4.74269
 Alpha virt. eigenvalues --    4.74698   4.74816   4.75067   4.75617   4.75646
 Alpha virt. eigenvalues --    4.75748   4.76044   4.76248   4.76615   4.76987
 Alpha virt. eigenvalues --    4.77509   4.77564   4.78061   4.78399   4.78796
 Alpha virt. eigenvalues --    4.79340   4.79711   4.80017   4.80452   4.80521
 Alpha virt. eigenvalues --    4.80660   4.81204   4.81715   4.81954   4.82558
 Alpha virt. eigenvalues --    4.82799   4.83444   4.83920   4.84240   4.84661
 Alpha virt. eigenvalues --    4.84901   4.85258   4.85585   4.85996   4.86514
 Alpha virt. eigenvalues --    4.87037   4.87805   4.87982   4.88634   4.89160
 Alpha virt. eigenvalues --    4.89786   4.89972   4.90114   4.90562   4.90758
 Alpha virt. eigenvalues --    4.91085   4.92097   4.92385   4.92445   4.92900
 Alpha virt. eigenvalues --    4.93466   4.94128   4.94226   4.94417   4.94634
 Alpha virt. eigenvalues --    4.94867   4.95140   4.95720   4.97548   4.98018
 Alpha virt. eigenvalues --    4.98633   4.98893   4.99061   5.00140   5.00505
 Alpha virt. eigenvalues --    5.01043   5.01498   5.01636   5.02173   5.02212
 Alpha virt. eigenvalues --    5.02703   5.03405   5.03734   5.03866   5.04156
 Alpha virt. eigenvalues --    5.04571   5.05201   5.05320   5.05753   5.06376
 Alpha virt. eigenvalues --    5.06748   5.07502   5.08605   5.09034   5.09104
 Alpha virt. eigenvalues --    5.09561   5.09912   5.10181   5.10404   5.10899
 Alpha virt. eigenvalues --    5.11642   5.11788   5.11959   5.12320   5.12571
 Alpha virt. eigenvalues --    5.12811   5.13845   5.14247   5.14699   5.14931
 Alpha virt. eigenvalues --    5.15716   5.16067   5.16298   5.16600   5.16909
 Alpha virt. eigenvalues --    5.17294   5.17797   5.17845   5.18197   5.18512
 Alpha virt. eigenvalues --    5.18658   5.19106   5.19244   5.19308   5.19415
 Alpha virt. eigenvalues --    5.19939   5.20099   5.20427   5.20747   5.21150
 Alpha virt. eigenvalues --    5.21247   5.21661   5.22019   5.22271   5.22531
 Alpha virt. eigenvalues --    5.22601   5.23076   5.23410   5.23653   5.24157
 Alpha virt. eigenvalues --    5.24316   5.24558   5.25378   5.25585   5.26037
 Alpha virt. eigenvalues --    5.26365   5.26571   5.27006   5.27342   5.27755
 Alpha virt. eigenvalues --    5.28355   5.28455   5.28675   5.29166   5.29921
 Alpha virt. eigenvalues --    5.30146   5.30338   5.30593   5.30832   5.31277
 Alpha virt. eigenvalues --    5.31418   5.31535   5.32396   5.32701   5.33302
 Alpha virt. eigenvalues --    5.33431   5.33674   5.33892   5.34512   5.34652
 Alpha virt. eigenvalues --    5.34898   5.35205   5.35682   5.35836   5.36189
 Alpha virt. eigenvalues --    5.36528   5.36963   5.37303   5.37562   5.38482
 Alpha virt. eigenvalues --    5.38555   5.38577   5.39164   5.39768   5.40198
 Alpha virt. eigenvalues --    5.40519   5.41107   5.41256   5.42194   5.42459
 Alpha virt. eigenvalues --    5.43166   5.43329   5.43561   5.43884   5.44530
 Alpha virt. eigenvalues --    5.44944   5.45281   5.45944   5.46898   5.47222
 Alpha virt. eigenvalues --    5.47772   5.48057   5.48876   5.49366   5.49821
 Alpha virt. eigenvalues --    5.50371   5.50819   5.51132   5.51569   5.51938
 Alpha virt. eigenvalues --    5.52176   5.52725   5.53455   5.53694   5.54434
 Alpha virt. eigenvalues --    5.54623   5.55830   5.56118   5.56395   5.56916
 Alpha virt. eigenvalues --    5.57421   5.58149   5.58384   5.58774   5.59305
 Alpha virt. eigenvalues --    5.59775   5.59907   5.60227   5.60675   5.60801
 Alpha virt. eigenvalues --    5.61243   5.62196   5.62425   5.62897   5.63037
 Alpha virt. eigenvalues --    5.63285   5.63958   5.64423   5.64604   5.64762
 Alpha virt. eigenvalues --    5.65401   5.65764   5.66302   5.67304   5.67993
 Alpha virt. eigenvalues --    5.69131   5.69757   5.70433   5.70670   5.71546
 Alpha virt. eigenvalues --    5.71708   5.72044   5.72648   5.73989   5.74139
 Alpha virt. eigenvalues --    5.74532   5.75311   5.76168   5.76391   5.77342
 Alpha virt. eigenvalues --    5.77946   5.79453   5.79770   5.80211   5.81471
 Alpha virt. eigenvalues --    5.81723   5.82192   5.82899   5.83413   5.85463
 Alpha virt. eigenvalues --    5.85950   5.87059   5.88455   5.88779   5.89440
 Alpha virt. eigenvalues --    5.90887   5.94575   5.95063   5.96013   5.97595
 Alpha virt. eigenvalues --    5.99286   6.01257   6.01465   6.01847   6.02830
 Alpha virt. eigenvalues --    6.03112   6.04029   6.05028   6.06253   6.06543
 Alpha virt. eigenvalues --    6.07509   6.08057   6.10205   6.11261   6.12496
 Alpha virt. eigenvalues --    6.13316   6.14350   6.16175   6.17414   6.20491
 Alpha virt. eigenvalues --    6.23387   6.25011   6.25740   6.34939   6.35332
 Alpha virt. eigenvalues --    6.40965   6.43017   6.44023   6.45472   6.46820
 Alpha virt. eigenvalues --    6.47743   6.52125   6.53842   6.56139   6.57311
 Alpha virt. eigenvalues --    6.58936   6.60431   6.62136   6.68049   6.69402
 Alpha virt. eigenvalues --    6.70980   6.75241   6.75918   6.76505   6.77328
 Alpha virt. eigenvalues --    6.78501   6.78796   6.79751   6.82332   6.82364
 Alpha virt. eigenvalues --    6.82757   6.83000   6.83593   6.83662   6.83758
 Alpha virt. eigenvalues --    6.84312   6.84432   6.84796   6.84891   6.85083
 Alpha virt. eigenvalues --    6.85572   6.85739   6.86213   6.86325   6.86527
 Alpha virt. eigenvalues --    6.86776   6.86930   6.87564   6.88089   6.89467
 Alpha virt. eigenvalues --    6.91757   6.95136   6.96963   6.97093   6.97116
 Alpha virt. eigenvalues --    6.98043   6.98755   7.00160   7.01126   7.01494
 Alpha virt. eigenvalues --    7.02084   7.04755   7.05458   7.06962   7.08555
 Alpha virt. eigenvalues --    7.09117   7.09431   7.10180   7.12144   7.13027
 Alpha virt. eigenvalues --    7.13171   7.13853   7.19621   7.22574   7.28298
 Alpha virt. eigenvalues --    7.34030   7.36171   7.36300   7.36330   7.36982
 Alpha virt. eigenvalues --    7.40804   7.43541   7.43736   7.48330   7.48654
 Alpha virt. eigenvalues --    7.48682   7.53732   7.56226   7.58867   7.58940
 Alpha virt. eigenvalues --    7.62584   7.62644   7.67001   7.85295   7.88011
 Alpha virt. eigenvalues --    7.96096   8.02988   8.26488   8.28575   8.29832
 Alpha virt. eigenvalues --    8.30714   8.30723   8.31617   8.44738   8.44875
 Alpha virt. eigenvalues --    8.45825   8.48923   8.50073   8.57242   8.57797
 Alpha virt. eigenvalues --    8.61637   8.67262   8.67649   8.75020   8.75395
 Alpha virt. eigenvalues --    8.78443   8.78735   8.81873   8.88565   8.89337
 Alpha virt. eigenvalues --    8.94571   8.95391   8.97815   8.99350   8.99688
 Alpha virt. eigenvalues --    9.03628   9.07798   9.09567   9.11348   9.16019
 Alpha virt. eigenvalues --    9.17650   9.24181   9.53604   9.54435   9.73419
 Alpha virt. eigenvalues --    9.80181  10.17763  10.19816  22.54919  22.64142
 Alpha virt. eigenvalues --   22.65353  22.68842  22.80089  22.81759  22.85070
 Alpha virt. eigenvalues --   22.88320  22.88547  22.89500  22.93411  22.94502
 Alpha virt. eigenvalues --   23.00467  23.02646  23.04941  23.07200  23.08036
 Alpha virt. eigenvalues --   23.09223  23.09869  23.11930  23.12567  23.13210
 Alpha virt. eigenvalues --   23.14739  23.16045  23.17371  23.18551  23.18596
 Alpha virt. eigenvalues --   23.20125  23.21886  23.22192  23.22638  23.23365
 Alpha virt. eigenvalues --   23.24152  23.25810  23.26240  23.28018  23.29007
 Alpha virt. eigenvalues --   23.29819  23.30478  23.32459  23.33084  23.34836
 Alpha virt. eigenvalues --   23.37690  23.41386  23.42157  23.43246  23.43741
 Alpha virt. eigenvalues --   23.50838  23.55190  23.55700  23.62528  23.69766
 Alpha virt. eigenvalues --   23.81198  23.81419  23.90834  24.12252  24.12540
 Alpha virt. eigenvalues --   24.16363  24.23029  24.27830  24.34331  24.44087
 Alpha virt. eigenvalues --   32.67005  32.89641  33.27263  34.64680  34.71822
 Alpha virt. eigenvalues --   34.98380  42.98601  43.91445  43.98580  44.16262
 Alpha virt. eigenvalues --   44.23660  44.29554  57.10354  57.15056  57.22943
 Alpha virt. eigenvalues --   57.25987  57.47130  57.55383  57.70176 117.87360
          Condensed to atoms (all electrons):
 Mulliken charges:
               1
     1  C    0.212551
     2  C    0.160333
     3  C   -0.000630
     4  C   -0.220885
     5  C    0.265467
     6  N   -0.309939
     7  H    0.134436
     8  C   -0.155651
     9  C    0.089456
    10  C   -0.127785
    11  C   -0.135633
    12  C   -0.143653
    13  H    0.145942
    14  H    0.149624
    15  H    0.151144
    16  C    0.325768
    17  C    0.064665
    18  C   -0.248744
    19  C   -0.221389
    20  C   -0.162494
    21  H    0.154932
    22  C   -0.140154
    23  H    0.150290
    24  C   -0.173227
    25  H    0.149377
    26  H    0.153295
    27  H    0.152554
    28  F   -0.231748
    29  C   -0.291450
    30  H    0.128335
    31  H    0.117460
    32  H    0.095178
    33  C   -0.064224
    34  C   -0.031123
    35  C    0.022940
    36  H    0.099754
    37  H    0.105772
    38  C   -0.013843
    39  H    0.105958
    40  H    0.111374
    41  H    0.073684
    42  H    0.104997
    43  H    0.097950
    44  H    0.102588
    45  N   -0.011187
    46  O   -0.337527
    47  I   -0.028396
    48  H    0.115252
    49  C   -0.141177
    50  C   -0.177672
    51  C   -0.028096
    52  C   -0.056832
    53  C   -0.142461
    54  C   -0.132868
    55  H    0.154970
    56  H    0.161158
    57  C    0.044465
    58  C   -0.072450
    59  H    0.147078
    60  H    0.153828
    61  C   -0.093529
    62  C   -0.068991
    63  H    0.146053
    64  C    0.087133
    65  C   -0.072632
    66  C   -0.037097
    67  C   -0.113736
    68  C   -0.056670
    69  C   -0.187587
    70  C   -0.084773
    71  C   -0.135440
    72  C   -0.136494
    73  H    0.163434
    74  H    0.148563
    75  C   -0.137411
    76  H    0.147789
    77  H    0.155293
    78  H    0.154219
    79  S    0.873930
    80  O   -0.488630
    81  O   -0.536179
    82  S    0.878492
    83  O   -0.479331
    84  O   -0.521779
    85  N   -0.404206
    86  C    0.132277
    87  C    0.169295
    88  C    0.056546
    89  C    0.207036
    90  C   -0.063545
    91  C   -0.160700
    92  C   -0.230808
    93  C   -0.092364
    94  C   -0.116697
    95  H    0.173751
    96  C   -0.146956
    97  H    0.160937
    98  H    0.161383
    99  H    0.159657
   100  C   -0.061210
   101  C   -0.195196
   102  C   -0.209821
   103  C   -0.134364
   104  H    0.164758
   105  C   -0.079193
   106  C   -0.168508
   107  H    0.160118
   108  H    0.159564
   109  H    0.159695
   110  C    0.573188
   111  F   -0.187394
   112  F   -0.190758
   113  F   -0.192978
   114  C    0.555281
   115  F   -0.185857
   116  F   -0.189766
   117  F   -0.189138
 Sum of Mulliken charges =   0.00000
 Mulliken charges with hydrogens summed into heavy atoms:
               1
     1  C    0.212551
     2  C    0.275585
     3  C   -0.000630
     4  C   -0.086448
     5  C    0.265467
     6  N   -0.309939
     8  C   -0.155651
     9  C    0.089456
    10  C    0.018158
    11  C    0.015512
    12  C    0.005971
    16  C    0.325768
    17  C    0.064665
    18  C   -0.093812
    19  C   -0.071099
    20  C   -0.013117
    22  C    0.013141
    24  C   -0.020673
    28  F   -0.231748
    29  C    0.049524
    33  C    0.141302
    34  C    0.186209
    35  C    0.201621
    38  C    0.186695
    45  N   -0.011187
    46  O   -0.337527
    47  I   -0.028396
    49  C    0.013793
    50  C   -0.016514
    51  C   -0.028096
    52  C   -0.056832
    53  C    0.004617
    54  C    0.020960
    57  C    0.044465
    58  C    0.073603
    61  C   -0.093529
    62  C   -0.068991
    64  C    0.087133
    65  C   -0.072632
    66  C   -0.037097
    67  C   -0.113736
    68  C   -0.056670
    69  C   -0.024153
    70  C    0.063790
    71  C    0.012349
    72  C    0.018800
    75  C    0.016808
    79  S    0.873930
    80  O   -0.488630
    81  O   -0.536179
    82  S    0.878492
    83  O   -0.479331
    84  O   -0.521779
    85  N   -0.404206
    86  C    0.132277
    87  C    0.169295
    88  C    0.056546
    89  C    0.207036
    90  C   -0.063545
    91  C   -0.160700
    92  C   -0.057057
    93  C    0.068573
    94  C    0.044685
    96  C    0.012701
   100  C   -0.061210
   101  C   -0.030438
   102  C   -0.209821
   103  C    0.025754
   105  C    0.080371
   106  C   -0.008813
   110  C    0.573188
   111  F   -0.187394
   112  F   -0.190758
   113  F   -0.192978
   114  C    0.555281
   115  F   -0.185857
   116  F   -0.189766
   117  F   -0.189138
 Electronic spatial extent (au):  <R**2>=          67364.0130
 Charge=              0.0000 electrons
 Dipole moment (field-independent basis, Debye):
    X=              7.1324    Y=             -8.1956    Z=              4.1815  Tot=             11.6415
 Quadrupole moment (field-independent basis, Debye-Ang):
   XX=           -450.4474   YY=           -403.8853   ZZ=           -471.2037
   XY=            -22.3592   XZ=              3.6352   YZ=             -6.5459
 Traceless Quadrupole moment (field-independent basis, Debye-Ang):
   XX=             -8.6019   YY=             37.9602   ZZ=            -29.3582
   XY=            -22.3592   XZ=              3.6352   YZ=             -6.5459
 Octapole moment (field-independent basis, Debye-Ang**2):
  XXX=            414.1927  YYY=           -109.6453  ZZZ=            -80.5266  XYY=           -222.6318
  XXY=           -109.2074  XXZ=              1.5074  XZZ=            -38.9710  YZZ=            -64.3069
  YYZ=            -51.6906  XYZ=           -146.9459
 Hexadecapole moment (field-independent basis, Debye-Ang**3):
 XXXX=         -47453.5868 YYYY=         -28422.2827 ZZZZ=          -9768.9659 XXXY=           -195.8328
 XXXZ=            163.7104 YYYX=            541.5248 YYYZ=           -127.6086 ZZZX=           -395.0256
 ZZZY=            211.0533 XXYY=         -12588.5839 XXZZ=          -9683.4174 YYZZ=          -6436.9208
 XXYZ=            514.6639 YYXZ=             65.4374 ZZXY=            310.7528
 N-N= 1.544919906156D+04 E-N=-4.172636210567D+04  KE= 4.441838304476D+03
 Leave Link  601 at Tue Jun 11 19:37:08 2024, MaxMem=  8589934592 cpu:              43.0 elap:               2.1
 (Enter /opt/packages/gaussian/g16RevC.01/g16/l9999.exe)
 Unable to Open any file for archive entry.
 1\1\GINC-R389\SP\RB3LYP\def2TZVPP\C60H39F7I1N3O5S2\BIM2\11-Jun-2024\0\
 \#p b3lyp def2tzvpp scf=maxcycle=128 nosymm scrf=(smd,solvent=propylet
 hanoate) empiricaldispersion=gd3bj\\Title Card Required\\0,1\C,0,1.843
 474,-1.610182,-0.323129\C,0,0.46018,-1.811503,-0.740875\C,0,-0.354033,
 -2.642671,0.144906\C,0,0.135703,-2.979359,1.372794\C,0,1.492994,-2.658
 375,1.710954\N,0,2.290161,-1.988929,0.836364\H,0,-0.508016,-3.520018,2
 .061547\C,0,2.845594,-0.913067,-1.180443\C,0,4.146155,-1.437754,-1.366
 005\C,0,5.104519,-0.661279,-2.027366\C,0,3.503249,1.109883,-2.388226\C
 ,0,4.790951,0.603287,-2.524428\H,0,6.103856,-1.071759,-2.179638\H,0,5.
 553733,1.194513,-3.033543\H,0,3.215078,2.09338,-2.759527\C,0,2.560704,
 0.342751,-1.720676\C,0,4.508509,-2.8151,-0.929693\C,0,5.73447,-3.06116
 4,-0.297729\C,0,3.653419,-3.898547,-1.184144\C,0,6.086596,-4.353744,0.
 094187\H,0,6.41306,-2.228426,-0.102764\C,0,4.006154,-5.188708,-0.79685
 5\H,0,2.706394,-3.727501,-1.704421\C,0,5.223147,-5.420817,-0.151435\H,
 0,7.042543,-4.526088,0.592327\H,0,3.331152,-6.019761,-1.008887\H,0,5.4
 9896,-6.432089,0.152714\F,0,1.335015,0.845911,-1.567784\C,0,-1.752525,
 -2.991921,-0.245957\H,0,-2.265895,-2.094971,-0.629676\H,0,-1.744078,-3
 .73359,-1.059832\H,0,-2.310262,-3.40108,0.605229\C,0,1.394431,-3.72978
 3,3.946857\C,0,3.482994,-2.803084,3.139585\C,0,2.126084,-5.044789,4.19
 4567\H,0,0.341036,-3.91273,3.722856\H,0,1.451689,-3.10157,4.84954\C,0,
 4.127439,-4.154818,3.418859\H,0,3.952779,-2.32332,2.276626\H,0,3.57026
 9,-2.15106,4.023352\H,0,2.015469,-5.694185,3.304634\H,0,1.684282,-5.55
 654,5.059482\H,0,4.09312,-4.766127,2.496383\H,0,5.178565,-4.013052,3.7
 04295\N,0,2.05841,-3.009178,2.864311\O,0,3.483601,-4.822781,4.475977\I
 ,0,0.161238,-2.063269,-2.833285\H,0,-0.160126,-0.713677,-0.547674\C,0,
 -2.54004,6.697699,-1.444765\C,0,-2.622711,5.4762,-0.820142\C,0,-1.4453
 51,4.789522,-0.410623\C,0,-0.181874,5.384468,-0.687698\C,0,-0.127097,6
 .655504,-1.325231\C,0,-1.281341,7.300235,-1.692598\H,0,-3.452762,7.206
 943,-1.75782\H,0,-3.599041,5.022747,-0.647757\C,0,-1.486174,3.512587,0
 .240762\C,0,1.002265,4.692907,-0.344445\H,0,0.851109,7.098417,-1.522\H
 ,0,-1.23465,8.272478,-2.185536\C,0,0.966017,3.436437,0.231989\C,0,-0.3
 05588,2.846426,0.525518\H,0,1.969718,5.152162,-0.555961\C,0,-2.82639,2
 .920289,0.571619\C,0,-3.284856,1.76203,-0.029871\C,0,-3.610945,3.54791
 9,1.59731\C,0,-4.524921,1.160148,0.361764\C,0,-4.876896,2.989515,1.936
 417\C,0,-3.165743,4.695151,2.31277\C,0,-5.304347,1.796965,1.308336\C,0
 ,-5.677519,3.611574,2.934607\C,0,-3.955876,5.269688,3.279889\H,0,-2.18
 4677,5.118821,2.098949\H,0,-6.257895,1.352515,1.598818\C,0,-5.229843,4
 .731764,3.588582\H,0,-6.647702,3.171646,3.173014\H,0,-3.595536,6.14692
 9,3.819322\H,0,-5.845633,5.203834,4.355643\S,0,-0.446982,1.163258,1.11
 2998\O,0,-1.352388,1.182589,2.217044\O,0,0.842274,0.588757,1.342258\S,
 0,-2.166659,0.950034,-1.162194\O,0,-1.648701,1.951513,-2.037213\O,0,-2
 .789551,-0.178196,-1.779339\N,0,-1.054706,0.372861,-0.151626\C,0,2.225
 771,2.808828,0.495757\C,0,3.340356,2.356527,0.651011\C,0,-4.984472,-0.
 099337,-0.141936\C,0,-5.391374,-1.182471,-0.505773\C,0,-5.734056,-2.46
 8947,-1.032871\C,0,-6.813784,-3.228772,-0.542351\C,0,-4.951487,-2.9924
 88,-2.074746\C,0,-7.100217,-4.478167,-1.083902\C,0,-5.242337,-4.244081
 ,-2.610515\H,0,-4.11864,-2.393852,-2.4485\C,0,-6.314686,-4.987421,-2.1
 18368\H,0,-7.939755,-5.054633,-0.695066\H,0,-4.627747,-4.639365,-3.420
 786\H,0,-6.544425,-5.966995,-2.53932\C,0,4.611554,1.727826,0.841101\C,
 0,4.664594,0.482805,1.487032\C,0,5.8102,2.312613,0.385363\C,0,5.888764
 ,-0.149959,1.687179\H,0,3.729487,0.023732,1.815007\C,0,7.027607,1.6654
 92,0.573063\C,0,7.068803,0.43429,1.228058\H,0,5.922279,-1.110718,2.204
 284\H,0,7.946557,2.128193,0.213036\H,0,8.026642,-0.064823,1.3815\C,0,5
 .765086,3.646617,-0.313805\F,0,6.984523,4.077482,-0.643168\F,0,5.20771
 1,4.592994,0.4483\F,0,5.051718,3.599296,-1.445869\C,0,-7.651114,-2.678
 752,0.582501\F,0,-8.639303,-3.509335,0.921112\F,0,-8.21425,-1.509371,0
 .261795\F,0,-6.924118,-2.464915,1.684263\\Version=ES64L-G16RevC.01\HF=
 -4645.0065833\RMSD=2.085e-09\Dipole=2.8060971,-3.2243963,1.6451174\Qua
 drupole=-6.395328,28.2224609,-21.827133,-16.6234809,2.7026796,-4.86670
 02\PG=C01 [X(C60H39F7I1N3O5S2)]\\@
 The archive entry for this job was punched.


 YOU ARE IN A MAZE OF TWISTY LITTLE PASSAGES.
 Job cpu time:       2 days  3 hours 46 minutes 10.8 seconds.
 Elapsed time:       0 days  1 hours 38 minutes 31.4 seconds.
 File lengths (MBytes):  RWF=   5918 Int=      0 D2E=      0 Chk=    522 Scr=      1
 Normal termination of Gaussian 16 at Tue Jun 11 19:37:09 2024.
