 Entering Gaussian System, Link 0=g16
 Initial command:
 /opt/packages/gaussian/g16RevC.01/g16/l1.exe "/local/Gau-63446.inp" -scrdir="/local/"
 Entering Link 1 = /opt/packages/gaussian/g16RevC.01/g16/l1.exe PID=     63447.
  
 Copyright (c) 1988-2019, Gaussian, Inc.  All Rights Reserved.
  
 This is part of the Gaussian(R) 16 program.  It is based on
 the Gaussian(R) 09 system (copyright 2009, Gaussian, Inc.),
 the Gaussian(R) 03 system (copyright 2003, Gaussian, Inc.),
 the Gaussian(R) 98 system (copyright 1998, Gaussian, Inc.),
 the Gaussian(R) 94 system (copyright 1995, Gaussian, Inc.),
 the Gaussian 92(TM) system (copyright 1992, Gaussian, Inc.),
 the Gaussian 90(TM) system (copyright 1990, Gaussian, Inc.),
 the Gaussian 88(TM) system (copyright 1988, Gaussian, Inc.),
 the Gaussian 86(TM) system (copyright 1986, Carnegie Mellon
 University), and the Gaussian 82(TM) system (copyright 1983,
 Carnegie Mellon University). Gaussian is a federally registered
 trademark of Gaussian, Inc.
  
 This software contains proprietary and confidential information,
 including trade secrets, belonging to Gaussian, Inc.
  
 This software is provided under written license and may be
 used, copied, transmitted, or stored only in accord with that
 written license.
  
 The following legend is applicable only to US Government
 contracts under FAR:
  
                    RESTRICTED RIGHTS LEGEND
  
 Use, reproduction and disclosure by the US Government is
 subject to restrictions as set forth in subparagraphs (a)
 and (c) of the Commercial Computer Software - Restricted
 Rights clause in FAR 52.227-19.
  
 Gaussian, Inc.
 340 Quinnipiac St., Bldg. 40, Wallingford CT 06492
  
  
 ---------------------------------------------------------------
 Warning -- This program may not be used in any manner that
 competes with the business of Gaussian, Inc. or will provide
 assistance to any competitor of Gaussian, Inc.  The licensee
 of this program is prohibited from giving any competitor of
 Gaussian, Inc. access to this program.  By using this program,
 the user acknowledges that Gaussian, Inc. is engaged in the
 business of creating and licensing software in the field of
 computational chemistry and represents and warrants to the
 licensee that it is not a competitor of Gaussian, Inc. and that
 it will not use this program in any manner prohibited above.
 ---------------------------------------------------------------
  

 Cite this work as:
 Gaussian 16, Revision C.01,
 M. J. Frisch, G. W. Trucks, H. B. Schlegel, G. E. Scuseria, 
 M. A. Robb, J. R. Cheeseman, G. Scalmani, V. Barone, 
 G. A. Petersson, H. Nakatsuji, X. Li, M. Caricato, A. V. Marenich, 
 J. Bloino, B. G. Janesko, R. Gomperts, B. Mennucci, H. P. Hratchian, 
 J. V. Ortiz, A. F. Izmaylov, J. L. Sonnenberg, D. Williams-Young, 
 F. Ding, F. Lipparini, F. Egidi, J. Goings, B. Peng, A. Petrone, 
 T. Henderson, D. Ranasinghe, V. G. Zakrzewski, J. Gao, N. Rega, 
 G. Zheng, W. Liang, M. Hada, M. Ehara, K. Toyota, R. Fukuda, 
 J. Hasegawa, M. Ishida, T. Nakajima, Y. Honda, O. Kitao, H. Nakai, 
 T. Vreven, K. Throssell, J. A. Montgomery, Jr., J. E. Peralta, 
 F. Ogliaro, M. J. Bearpark, J. J. Heyd, E. N. Brothers, K. N. Kudin, 
 V. N. Staroverov, T. A. Keith, R. Kobayashi, J. Normand, 
 K. Raghavachari, A. P. Rendell, J. C. Burant, S. S. Iyengar, 
 J. Tomasi, M. Cossi, J. M. Millam, M. Klene, C. Adamo, R. Cammi, 
 J. W. Ochterski, R. L. Martin, K. Morokuma, O. Farkas, 
 J. B. Foresman, and D. J. Fox, Gaussian, Inc., Wallingford CT, 2019.
 
 ******************************************
 Gaussian 16:  ES64L-G16RevC.01  3-Jul-2019
                11-Jun-2024 
 ******************************************
 %nprocshared=32
 Will use up to   32 processors via shared memory.
 %mem=64GB
 ----------------------------------------------------------------------
 #p b3lyp def2tzvpp scf=maxcycle=128 nosymm scrf=(smd,solvent=propyleth
 anoate) empiricaldispersion=gd3bj
 ----------------------------------------------------------------------
 1/38=1,172=1/1;
 2/12=2,15=1,17=6,18=5,40=1/2;
 3/5=44,7=202,11=2,25=1,30=1,70=32201,72=169,74=-5,124=41/1,2,3;
 4//1;
 5/5=2,7=128,38=5,53=169/2;
 6/7=2,8=2,9=2,10=2,28=1/1;
 99/5=1,9=1/99;
 Leave Link    1 at Tue Jun 11 17:58:36 2024, MaxMem=  8589934592 cpu:               1.1 elap:               0.0
 (Enter /opt/packages/gaussian/g16RevC.01/g16/l101.exe)
 -------------------
 Title Card Required
 -------------------
 Symbolic Z-matrix:
 Charge =  0 Multiplicity = 1
 C                    -1.71734  -2.02113   0.09514 
 C                    -0.48519  -2.13292   0.87447 
 C                    -0.5594   -1.60464   2.23822 
 C                    -1.59655  -0.78358   2.56914 
 C                    -2.69485  -0.62368   1.66089 
 N                    -2.71763  -1.28072   0.47016 
 H                    -1.61518  -0.33562   3.55927 
 C                    -1.90476  -2.70014  -1.22022 
 C                    -3.12888  -3.33643  -1.53299 
 C                    -3.34579  -3.80136  -2.83516 
 C                    -1.15078  -3.06833  -3.51855 
 C                    -2.37453  -3.65433  -3.82405 
 H                    -4.28322  -4.31105  -3.06351 
 H                    -2.56304  -4.01963  -4.83454 
 H                    -0.35612  -2.94969  -4.25536 
 C                    -0.93424  -2.61906  -2.22394 
 C                    -4.16826  -3.59937  -0.4985 
 C                    -5.51771  -3.32966  -0.75756 
 C                    -3.81809  -4.17538   0.7318 
 C                    -6.49464  -3.61553   0.19732 
 H                    -5.80281  -2.87697  -1.70933 
 C                    -4.79322  -4.465     1.68276 
 H                    -2.76892  -4.40831   0.93618 
 C                    -6.13617  -4.18473   1.41873 
 H                    -7.54127  -3.39123  -0.01679 
 H                    -4.50471  -4.92039   2.63176 
 H                    -6.90053  -4.41095   2.16424 
 F                     0.25271  -2.08452  -1.94303 
 C                     0.51176  -1.90249   3.23589 
 H                     0.3825   -2.933     3.60423 
 H                     1.50834  -1.84462   2.77801 
 H                     0.45838  -1.20926   4.08337 
 C                    -5.01493   0.0323    1.1947 
 C                    -3.90426   0.96396   3.12737 
 C                    -6.09564  -0.49033   2.13493 
 H                    -4.88606  -0.62845   0.33142 
 H                    -5.27937   1.04307   0.85341 
 C                    -5.03077   0.41663   3.99769 
 H                    -2.96779   1.04165   3.68579 
 H                    -4.17674   1.9712    2.77367 
 H                    -5.84711  -1.52623   2.43543 
 H                    -7.06377  -0.49939   1.61638 
 H                    -4.73952  -0.57928   4.38476 
 H                    -5.20418   1.08681   4.84985 
 N                    -3.76046   0.12063   1.94522 
 O                    -6.22865   0.33262   3.26973 
 I                     0.61916  -3.93519   0.63935 
 H                     0.25832  -1.22553   0.34026 
 C                     3.22361   5.95512  -1.94611 
 C                     2.53993   5.01387  -1.21425 
 C                     3.16994   3.79753  -0.82612 
 C                     4.51301   3.56886  -1.24199 
 C                     5.19941   4.56653  -1.98909 
 C                     4.57016   5.73716  -2.32989 
 H                     2.72159   6.87829  -2.23957 
 H                     1.50104   5.19715  -0.94103 
 C                     2.50047   2.78692  -0.05706 
 C                     5.14149   2.3426   -0.92741 
 H                     6.23092   4.37425  -2.29021 
 H                     5.09881   6.49796  -2.90621 
 C                     4.47915   1.3437   -0.23764 
 C                     3.1396    1.58958   0.20421 
 H                     6.16915   2.17046  -1.25239 
 C                     1.09656   3.074     0.3908 
 C                     0.00853   2.4043   -0.13766 
 C                     0.89423   4.10177   1.37159 
 C                    -1.33181   2.81902   0.16754 
 C                    -0.43474   4.48641   1.70727 
 C                     1.97596   4.73668   2.04254 
 C                    -1.52439   3.85212   1.06537 
 C                    -0.64722   5.50899   2.67309 
 C                     1.74095   5.71221   2.98224 
 H                     2.99974   4.43481   1.81938 
 H                    -2.54019   4.18979   1.27885 
 C                     0.41778   6.11046   3.29614 
 H                    -1.67294   5.7987    2.90959 
 H                     2.58175   6.18275   3.49404 
 H                     0.25012   6.89181   4.03901 
 S                     2.17568   0.33609   1.01951 
 O                     1.58624   0.9442    2.17398 
 O                     2.96056  -0.83611   1.24323 
 S                     0.34746   0.93986  -1.11537 
 O                     1.23261   1.32984  -2.1636 
 O                    -0.88209   0.31057  -1.47866 
 N                     1.05483  -0.05596  -0.06836 
 C                     5.2058    0.12946  -0.0114 
 C                     5.92918  -0.83712   0.10587 
 C                    -2.48237   2.27121  -0.48735 
 C                    -3.45412   1.86033  -1.08618 
 C                    -4.4853    1.24191  -1.86358 
 C                    -5.76785   1.8045   -2.01428 
 C                    -4.19501   0.02173  -2.49584 
 C                    -6.73783   1.15499  -2.77238 
 C                    -5.16784  -0.61488  -3.26257 
 H                    -3.19671  -0.4043   -2.37015 
 C                    -6.43883  -0.05629  -3.39665 
 H                    -7.72647   1.60099  -2.88155 
 H                    -4.92697  -1.55686  -3.75873 
 H                    -7.20055  -0.55803  -3.99475 
 C                     6.74139  -2.00611   0.26109 
 C                     8.08793  -2.03079  -0.15648 
 C                     6.19028  -3.16012   0.8385 
 C                     8.85538  -3.18031   0.00239 
 C                     6.9636   -4.30707   0.99442 
 H                     5.14787  -3.13785   1.15824 
 C                     8.29399  -4.32038   0.57816 
 H                     9.89492  -3.18432  -0.32549 
 H                     6.52172  -5.19738   1.4443 
 H                     8.89986  -5.21908   0.69971 
 C                     8.69388  -0.79746  -0.77547 
 F                     8.66961   0.24575   0.06137 
 F                     8.04144  -0.41731  -1.87928 
 F                     9.96825  -0.98891  -1.12227 
 C                    -6.07482   3.13216  -1.37237 
 F                    -5.27894   4.10182  -1.83008 
 F                    -5.9084    3.10168  -0.04099 
 F                    -7.33227   3.51606  -1.59408 
 
 ITRead=  0  0  0  0  0  0  0  0  0  0  0  0  0  0  0  0  0  0  0  0
 ITRead=  0  0  0  0  0  0  0  0  0  0  0  0  0  0  0  0  0  0  0  0
 ITRead=  0  0  0  0  0  0  0  0  0  0  0  0  0  0  0  0  0  0  0  0
 ITRead=  0  0  0  0  0  0  0  0  0  0  0  0  0  0  0  0  0  0  0  0
 ITRead=  0  0  0  0  0  0  0  0  0  0  0  0  0  0  0  0  0  0  0  0
 ITRead=  0  0  0  0  0  0  0  0  0  0  0  0  0  0  0  0  0
 MicOpt= -1 -1 -1 -1 -1 -1 -1 -1 -1 -1 -1 -1 -1 -1 -1 -1 -1 -1 -1 -1
 MicOpt= -1 -1 -1 -1 -1 -1 -1 -1 -1 -1 -1 -1 -1 -1 -1 -1 -1 -1 -1 -1
 MicOpt= -1 -1 -1 -1 -1 -1 -1 -1 -1 -1 -1 -1 -1 -1 -1 -1 -1 -1 -1 -1
 MicOpt= -1 -1 -1 -1 -1 -1 -1 -1 -1 -1 -1 -1 -1 -1 -1 -1 -1 -1 -1 -1
 MicOpt= -1 -1 -1 -1 -1 -1 -1 -1 -1 -1 -1 -1 -1 -1 -1 -1 -1 -1 -1 -1
 MicOpt= -1 -1 -1 -1 -1 -1 -1 -1 -1 -1 -1 -1 -1 -1 -1 -1 -1
 NAtoms=    117 NQM=      117 NQMF=       0 NMMI=      0 NMMIF=      0
                NMic=       0 NMicF=      0.
                    Isotopes and Nuclear Properties:
 (Nuclear quadrupole moments (NQMom) in fm**2, nuclear magnetic moments (NMagM)
  in nuclear magnetons)

  Atom         1           2           3           4           5           6           7           8           9          10
 IAtWgt=          12          12          12          12          12          14           1          12          12          12
 AtmWgt=  12.0000000  12.0000000  12.0000000  12.0000000  12.0000000  14.0030740   1.0078250  12.0000000  12.0000000  12.0000000
 NucSpn=           0           0           0           0           0           2           1           0           0           0
 AtZEff=   0.0000000   0.0000000   0.0000000   0.0000000   0.0000000   0.0000000   0.0000000   0.0000000   0.0000000   0.0000000
 NQMom=    0.0000000   0.0000000   0.0000000   0.0000000   0.0000000   2.0440000   0.0000000   0.0000000   0.0000000   0.0000000
 NMagM=    0.0000000   0.0000000   0.0000000   0.0000000   0.0000000   0.4037610   2.7928460   0.0000000   0.0000000   0.0000000
 AtZNuc=   6.0000000   6.0000000   6.0000000   6.0000000   6.0000000   7.0000000   1.0000000   6.0000000   6.0000000   6.0000000

  Atom        11          12          13          14          15          16          17          18          19          20
 IAtWgt=          12          12           1           1           1          12          12          12          12          12
 AtmWgt=  12.0000000  12.0000000   1.0078250   1.0078250   1.0078250  12.0000000  12.0000000  12.0000000  12.0000000  12.0000000
 NucSpn=           0           0           1           1           1           0           0           0           0           0
 AtZEff=   0.0000000   0.0000000   0.0000000   0.0000000   0.0000000   0.0000000   0.0000000   0.0000000   0.0000000   0.0000000
 NQMom=    0.0000000   0.0000000   0.0000000   0.0000000   0.0000000   0.0000000   0.0000000   0.0000000   0.0000000   0.0000000
 NMagM=    0.0000000   0.0000000   2.7928460   2.7928460   2.7928460   0.0000000   0.0000000   0.0000000   0.0000000   0.0000000
 AtZNuc=   6.0000000   6.0000000   1.0000000   1.0000000   1.0000000   6.0000000   6.0000000   6.0000000   6.0000000   6.0000000

  Atom        21          22          23          24          25          26          27          28          29          30
 IAtWgt=           1          12           1          12           1           1           1          19          12           1
 AtmWgt=   1.0078250  12.0000000   1.0078250  12.0000000   1.0078250   1.0078250   1.0078250  18.9984032  12.0000000   1.0078250
 NucSpn=           1           0           1           0           1           1           1           1           0           1
 AtZEff=   0.0000000   0.0000000   0.0000000   0.0000000   0.0000000   0.0000000   0.0000000   0.0000000   0.0000000   0.0000000
 NQMom=    0.0000000   0.0000000   0.0000000   0.0000000   0.0000000   0.0000000   0.0000000   0.0000000   0.0000000   0.0000000
 NMagM=    2.7928460   0.0000000   2.7928460   0.0000000   2.7928460   2.7928460   2.7928460   2.6288670   0.0000000   2.7928460
 AtZNuc=   1.0000000   6.0000000   1.0000000   6.0000000   1.0000000   1.0000000   1.0000000   9.0000000   6.0000000   1.0000000

  Atom        31          32          33          34          35          36          37          38          39          40
 IAtWgt=           1           1          12          12          12           1           1          12           1           1
 AtmWgt=   1.0078250   1.0078250  12.0000000  12.0000000  12.0000000   1.0078250   1.0078250  12.0000000   1.0078250   1.0078250
 NucSpn=           1           1           0           0           0           1           1           0           1           1
 AtZEff=   0.0000000   0.0000000   0.0000000   0.0000000   0.0000000   0.0000000   0.0000000   0.0000000   0.0000000   0.0000000
 NQMom=    0.0000000   0.0000000   0.0000000   0.0000000   0.0000000   0.0000000   0.0000000   0.0000000   0.0000000   0.0000000
 NMagM=    2.7928460   2.7928460   0.0000000   0.0000000   0.0000000   2.7928460   2.7928460   0.0000000   2.7928460   2.7928460
 AtZNuc=   1.0000000   1.0000000   6.0000000   6.0000000   6.0000000   1.0000000   1.0000000   6.0000000   1.0000000   1.0000000

  Atom        41          42          43          44          45          46          47          48          49          50
 IAtWgt=           1           1           1           1          14          16         127           1          12          12
 AtmWgt=   1.0078250   1.0078250   1.0078250   1.0078250  14.0030740  15.9949146 126.9004000   1.0078250  12.0000000  12.0000000
 NucSpn=           1           1           1           1           2           0           5           1           0           0
 AtZEff=   0.0000000   0.0000000   0.0000000   0.0000000   0.0000000   0.0000000   0.0000000   0.0000000   0.0000000   0.0000000
 NQMom=    0.0000000   0.0000000   0.0000000   0.0000000   2.0440000   0.0000000 -71.0000000   0.0000000   0.0000000   0.0000000
 NMagM=    2.7928460   2.7928460   2.7928460   2.7928460   0.4037610   0.0000000   2.8132800   2.7928460   0.0000000   0.0000000
 AtZNuc=   1.0000000   1.0000000   1.0000000   1.0000000   7.0000000   8.0000000  53.0000000   1.0000000   6.0000000   6.0000000

  Atom        51          52          53          54          55          56          57          58          59          60
 IAtWgt=          12          12          12          12           1           1          12          12           1           1
 AtmWgt=  12.0000000  12.0000000  12.0000000  12.0000000   1.0078250   1.0078250  12.0000000  12.0000000   1.0078250   1.0078250
 NucSpn=           0           0           0           0           1           1           0           0           1           1
 AtZEff=   0.0000000   0.0000000   0.0000000   0.0000000   0.0000000   0.0000000   0.0000000   0.0000000   0.0000000   0.0000000
 NQMom=    0.0000000   0.0000000   0.0000000   0.0000000   0.0000000   0.0000000   0.0000000   0.0000000   0.0000000   0.0000000
 NMagM=    0.0000000   0.0000000   0.0000000   0.0000000   2.7928460   2.7928460   0.0000000   0.0000000   2.7928460   2.7928460
 AtZNuc=   6.0000000   6.0000000   6.0000000   6.0000000   1.0000000   1.0000000   6.0000000   6.0000000   1.0000000   1.0000000

  Atom        61          62          63          64          65          66          67          68          69          70
 IAtWgt=          12          12           1          12          12          12          12          12          12          12
 AtmWgt=  12.0000000  12.0000000   1.0078250  12.0000000  12.0000000  12.0000000  12.0000000  12.0000000  12.0000000  12.0000000
 NucSpn=           0           0           1           0           0           0           0           0           0           0
 AtZEff=   0.0000000   0.0000000   0.0000000   0.0000000   0.0000000   0.0000000   0.0000000   0.0000000   0.0000000   0.0000000
 NQMom=    0.0000000   0.0000000   0.0000000   0.0000000   0.0000000   0.0000000   0.0000000   0.0000000   0.0000000   0.0000000
 NMagM=    0.0000000   0.0000000   2.7928460   0.0000000   0.0000000   0.0000000   0.0000000   0.0000000   0.0000000   0.0000000
 AtZNuc=   6.0000000   6.0000000   1.0000000   6.0000000   6.0000000   6.0000000   6.0000000   6.0000000   6.0000000   6.0000000

  Atom        71          72          73          74          75          76          77          78          79          80
 IAtWgt=          12          12           1           1          12           1           1           1          32          16
 AtmWgt=  12.0000000  12.0000000   1.0078250   1.0078250  12.0000000   1.0078250   1.0078250   1.0078250  31.9720718  15.9949146
 NucSpn=           0           0           1           1           0           1           1           1           0           0
 AtZEff=   0.0000000   0.0000000   0.0000000   0.0000000   0.0000000   0.0000000   0.0000000   0.0000000   0.0000000   0.0000000
 NQMom=    0.0000000   0.0000000   0.0000000   0.0000000   0.0000000   0.0000000   0.0000000   0.0000000   0.0000000   0.0000000
 NMagM=    0.0000000   0.0000000   2.7928460   2.7928460   0.0000000   2.7928460   2.7928460   2.7928460   0.0000000   0.0000000
 AtZNuc=   6.0000000   6.0000000   1.0000000   1.0000000   6.0000000   1.0000000   1.0000000   1.0000000  16.0000000   8.0000000

  Atom        81          82          83          84          85          86          87          88          89          90
 IAtWgt=          16          32          16          16          14          12          12          12          12          12
 AtmWgt=  15.9949146  31.9720718  15.9949146  15.9949146  14.0030740  12.0000000  12.0000000  12.0000000  12.0000000  12.0000000
 NucSpn=           0           0           0           0           2           0           0           0           0           0
 AtZEff=   0.0000000   0.0000000   0.0000000   0.0000000   0.0000000   0.0000000   0.0000000   0.0000000   0.0000000   0.0000000
 NQMom=    0.0000000   0.0000000   0.0000000   0.0000000   2.0440000   0.0000000   0.0000000   0.0000000   0.0000000   0.0000000
 NMagM=    0.0000000   0.0000000   0.0000000   0.0000000   0.4037610   0.0000000   0.0000000   0.0000000   0.0000000   0.0000000
 AtZNuc=   8.0000000  16.0000000   8.0000000   8.0000000   7.0000000   6.0000000   6.0000000   6.0000000   6.0000000   6.0000000

  Atom        91          92          93          94          95          96          97          98          99         100
 IAtWgt=          12          12          12          12           1          12           1           1           1          12
 AtmWgt=  12.0000000  12.0000000  12.0000000  12.0000000   1.0078250  12.0000000   1.0078250   1.0078250   1.0078250  12.0000000
 NucSpn=           0           0           0           0           1           0           1           1           1           0
 AtZEff=   0.0000000   0.0000000   0.0000000   0.0000000   0.0000000   0.0000000   0.0000000   0.0000000   0.0000000   0.0000000
 NQMom=    0.0000000   0.0000000   0.0000000   0.0000000   0.0000000   0.0000000   0.0000000   0.0000000   0.0000000   0.0000000
 NMagM=    0.0000000   0.0000000   0.0000000   0.0000000   2.7928460   0.0000000   2.7928460   2.7928460   2.7928460   0.0000000
 AtZNuc=   6.0000000   6.0000000   6.0000000   6.0000000   1.0000000   6.0000000   1.0000000   1.0000000   1.0000000   6.0000000

  Atom       101         102         103         104         105         106         107         108         109         110
 IAtWgt=          12          12          12          12           1          12           1           1           1          12
 AtmWgt=  12.0000000  12.0000000  12.0000000  12.0000000   1.0078250  12.0000000   1.0078250   1.0078250   1.0078250  12.0000000
 NucSpn=           0           0           0           0           1           0           1           1           1           0
 AtZEff=   0.0000000   0.0000000   0.0000000   0.0000000   0.0000000   0.0000000   0.0000000   0.0000000   0.0000000   0.0000000
 NQMom=    0.0000000   0.0000000   0.0000000   0.0000000   0.0000000   0.0000000   0.0000000   0.0000000   0.0000000   0.0000000
 NMagM=    0.0000000   0.0000000   0.0000000   0.0000000   2.7928460   0.0000000   2.7928460   2.7928460   2.7928460   0.0000000
 AtZNuc=   6.0000000   6.0000000   6.0000000   6.0000000   1.0000000   6.0000000   1.0000000   1.0000000   1.0000000   6.0000000

  Atom       111         112         113         114         115         116         117
 IAtWgt=          19          19          19          12          19          19          19
 AtmWgt=  18.9984032  18.9984032  18.9984032  12.0000000  18.9984032  18.9984032  18.9984032
 NucSpn=           1           1           1           0           1           1           1
 AtZEff=   0.0000000   0.0000000   0.0000000   0.0000000   0.0000000   0.0000000   0.0000000
 NQMom=    0.0000000   0.0000000   0.0000000   0.0000000   0.0000000   0.0000000   0.0000000
 NMagM=    2.6288670   2.6288670   2.6288670   0.0000000   2.6288670   2.6288670   2.6288670
 AtZNuc=   9.0000000   9.0000000   9.0000000   6.0000000   9.0000000   9.0000000   9.0000000
 Leave Link  101 at Tue Jun 11 17:58:37 2024, MaxMem=  8589934592 cpu:               4.5 elap:               0.2
 (Enter /opt/packages/gaussian/g16RevC.01/g16/l202.exe)
 Symmetry turned off by external request.
 Stoichiometry    C60H39F7IN3O5S2
 Framework group  C1[X(C60H39F7IN3O5S2)]
 Deg. of freedom   345
 Full point group                 C1      NOp   1
                          Input orientation:                          
 ---------------------------------------------------------------------
 Center     Atomic      Atomic             Coordinates (Angstroms)
 Number     Number       Type             X           Y           Z
 ---------------------------------------------------------------------
      1          6           0       -1.717341   -2.021134    0.095143
      2          6           0       -0.485185   -2.132917    0.874472
      3          6           0       -0.559396   -1.604636    2.238217
      4          6           0       -1.596553   -0.783584    2.569144
      5          6           0       -2.694850   -0.623678    1.660885
      6          7           0       -2.717633   -1.280724    0.470156
      7          1           0       -1.615180   -0.335619    3.559273
      8          6           0       -1.904757   -2.700139   -1.220215
      9          6           0       -3.128881   -3.336425   -1.532986
     10          6           0       -3.345785   -3.801360   -2.835156
     11          6           0       -1.150777   -3.068332   -3.518553
     12          6           0       -2.374525   -3.654327   -3.824054
     13          1           0       -4.283220   -4.311053   -3.063511
     14          1           0       -2.563039   -4.019632   -4.834544
     15          1           0       -0.356120   -2.949688   -4.255360
     16          6           0       -0.934237   -2.619060   -2.223940
     17          6           0       -4.168259   -3.599368   -0.498498
     18          6           0       -5.517713   -3.329660   -0.757561
     19          6           0       -3.818089   -4.175383    0.731798
     20          6           0       -6.494638   -3.615529    0.197320
     21          1           0       -5.802811   -2.876973   -1.709331
     22          6           0       -4.793222   -4.464996    1.682759
     23          1           0       -2.768917   -4.408308    0.936180
     24          6           0       -6.136166   -4.184735    1.418732
     25          1           0       -7.541268   -3.391231   -0.016785
     26          1           0       -4.504707   -4.920388    2.631763
     27          1           0       -6.900534   -4.410954    2.164237
     28          9           0        0.252710   -2.084522   -1.943032
     29          6           0        0.511755   -1.902492    3.235893
     30          1           0        0.382496   -2.933004    3.604232
     31          1           0        1.508335   -1.844622    2.778005
     32          1           0        0.458379   -1.209257    4.083371
     33          6           0       -5.014929    0.032300    1.194702
     34          6           0       -3.904264    0.963963    3.127367
     35          6           0       -6.095640   -0.490333    2.134931
     36          1           0       -4.886061   -0.628452    0.331421
     37          1           0       -5.279373    1.043067    0.853412
     38          6           0       -5.030774    0.416633    3.997688
     39          1           0       -2.967786    1.041650    3.685790
     40          1           0       -4.176744    1.971197    2.773672
     41          1           0       -5.847108   -1.526230    2.435431
     42          1           0       -7.063772   -0.499391    1.616382
     43          1           0       -4.739518   -0.579278    4.384756
     44          1           0       -5.204181    1.086806    4.849850
     45          7           0       -3.760459    0.120630    1.945215
     46          8           0       -6.228650    0.332623    3.269734
     47         53           0        0.619161   -3.935192    0.639345
     48          1           0        0.258317   -1.225525    0.340263
     49          6           0        3.223607    5.955118   -1.946105
     50          6           0        2.539934    5.013867   -1.214254
     51          6           0        3.169935    3.797534   -0.826119
     52          6           0        4.513013    3.568858   -1.241985
     53          6           0        5.199407    4.566527   -1.989088
     54          6           0        4.570163    5.737163   -2.329889
     55          1           0        2.721592    6.878286   -2.239566
     56          1           0        1.501036    5.197151   -0.941034
     57          6           0        2.500473    2.786918   -0.057062
     58          6           0        5.141487    2.342596   -0.927412
     59          1           0        6.230916    4.374250   -2.290205
     60          1           0        5.098807    6.497964   -2.906206
     61          6           0        4.479152    1.343697   -0.237640
     62          6           0        3.139602    1.589581    0.204213
     63          1           0        6.169145    2.170460   -1.252388
     64          6           0        1.096564    3.073999    0.390800
     65          6           0        0.008531    2.404299   -0.137656
     66          6           0        0.894225    4.101767    1.371590
     67          6           0       -1.331805    2.819016    0.167544
     68          6           0       -0.434735    4.486410    1.707273
     69          6           0        1.975957    4.736684    2.042537
     70          6           0       -1.524385    3.852122    1.065368
     71          6           0       -0.647221    5.508988    2.673087
     72          6           0        1.740952    5.712207    2.982244
     73          1           0        2.999743    4.434812    1.819383
     74          1           0       -2.540192    4.189791    1.278853
     75          6           0        0.417778    6.110464    3.296138
     76          1           0       -1.672937    5.798699    2.909585
     77          1           0        2.581748    6.182753    3.494039
     78          1           0        0.250121    6.891813    4.039012
     79         16           0        2.175682    0.336086    1.019514
     80          8           0        1.586239    0.944199    2.173982
     81          8           0        2.960564   -0.836112    1.243232
     82         16           0        0.347462    0.939857   -1.115366
     83          8           0        1.232605    1.329843   -2.163602
     84          8           0       -0.882091    0.310566   -1.478655
     85          7           0        1.054830   -0.055957   -0.068362
     86          6           0        5.205795    0.129455   -0.011397
     87          6           0        5.929176   -0.837118    0.105873
     88          6           0       -2.482367    2.271205   -0.487349
     89          6           0       -3.454117    1.860330   -1.086176
     90          6           0       -4.485298    1.241911   -1.863581
     91          6           0       -5.767852    1.804496   -2.014283
     92          6           0       -4.195005    0.021726   -2.495837
     93          6           0       -6.737828    1.154989   -2.772375
     94          6           0       -5.167835   -0.614881   -3.262569
     95          1           0       -3.196708   -0.404303   -2.370154
     96          6           0       -6.438834   -0.056292   -3.396649
     97          1           0       -7.726466    1.600985   -2.881554
     98          1           0       -4.926974   -1.556857   -3.758731
     99          1           0       -7.200554   -0.558028   -3.994750
    100          6           0        6.741387   -2.006113    0.261086
    101          6           0        8.087935   -2.030792   -0.156476
    102          6           0        6.190281   -3.160123    0.838495
    103          6           0        8.855381   -3.180306    0.002389
    104          6           0        6.963601   -4.307066    0.994424
    105          1           0        5.147868   -3.137847    1.158240
    106          6           0        8.293988   -4.320377    0.578163
    107          1           0        9.894919   -3.184320   -0.325488
    108          1           0        6.521720   -5.197382    1.444300
    109          1           0        8.899862   -5.219075    0.699706
    110          6           0        8.693883   -0.797458   -0.775466
    111          9           0        8.669608    0.245746    0.061367
    112          9           0        8.041440   -0.417310   -1.879277
    113          9           0        9.968250   -0.988911   -1.122273
    114          6           0       -6.074823    3.132163   -1.372373
    115          9           0       -5.278942    4.101815   -1.830078
    116          9           0       -5.908396    3.101675   -0.040988
    117          9           0       -7.332274    3.516061   -1.594077
 ---------------------------------------------------------------------
 Rotational constants (GHZ):           0.0346794           0.0185500           0.0146707
 Leave Link  202 at Tue Jun 11 17:58:37 2024, MaxMem=  8589934592 cpu:               0.4 elap:               0.0
 (Enter /opt/packages/gaussian/g16RevC.01/g16/l301.exe)
 Standard basis: def2TZVPP (5D, 7F)
 Ernie: Thresh=  0.10000D-02 Tol=  0.10000D-05 Strict=F.
  3005 basis functions,  4735 primitive gaussians,  3440 cartesian basis functions
   290 alpha electrons      290 beta electrons
       nuclear repulsion energy     15395.8789784982 Hartrees.
 IExCor=  402 DFT=T Ex+Corr=B3LYP ExCW=0 ScaHFX=  0.200000
 ScaDFX=  0.800000  0.720000  1.000000  0.810000 ScalE2=  1.000000  1.000000
 IRadAn=      5 IRanWt=     -1 IRanGd=            0 ICorTp=0 IEmpDi=141
 NAtoms=  117 NActive=  117 NUniq=  117 SFac= 1.00D+00 NAtFMM=   60 NAOKFM=T Big=T
 Integral buffers will be    131072 words long.
 Raffenetti 2 integral format.
 Two-electron integral symmetry is turned off.
 R6Disp:  Grimme-D3(BJ) Dispersion energy=       -0.3824945885 Hartrees.
 Nuclear repulsion after empirical dispersion term =    15395.4964839098 Hartrees.
 ------------------------------------------------------------------------------
 Polarizable Continuum Model (PCM)
 =================================
 Model                : PCM.
 Atomic radii         : SMD-Coulomb.
 Polarization charges : Total charges.
 Charge compensation  : None.
 Solution method      : On-the-fly selection.
 Cavity type          : VdW (van der Waals Surface) (Alpha=1.000).
 Cavity algorithm     : GePol (No added spheres)
                        Default sphere list used, NSphG=  117.
                        Lebedev-Laikov grids with approx.  5.0 points / Ang**2.
                        Smoothing algorithm: York/Karplus (Gamma=1.0000).
                        Polarization charges: spherical gaussians, with
                                              point-specific exponents (IZeta= 3).
                        Self-potential: point-specific (ISelfS= 7).
                        Self-field    : sphere-specific E.n sum rule (ISelfD= 2).
 Solvent              : PropylEthanoate, Eps=   5.520500 Eps(inf)=   1.916010
 ------------------------------------------------------------------------------
 GePol: Number of generator spheres                  =     117
 GePol: Total number of spheres                      =     117
 GePol: Number of exposed spheres                    =     117 (100.00%)
 GePol: Number of points                             =    8461
 GePol: Average weight of points                     =       0.11
 GePol: Minimum weight of points                     =   0.24D-11
 GePol: Maximum weight of points                     =    0.21501
 GePol: Number of points with low weight             =     560
 GePol: Fraction of low-weight points (<1% of avg)   =       6.62%
 GePol: Cavity surface area                          =    950.956 Ang**2
 GePol: Cavity volume                                =   1073.973 Ang**3
 ------------------------------------------------------------------------------
 Atomic radii for non-electrostatic terms: SMD-CDS.
 ------------------------------------------------------------------------------
 PCM non-electrostatic energy =        -0.0217344335 Hartrees.
 Nuclear repulsion after PCM non-electrostatic terms =    15395.4747494763 Hartrees.
 Leave Link  301 at Tue Jun 11 17:58:37 2024, MaxMem=  8589934592 cpu:               5.2 elap:               0.2
 (Enter /opt/packages/gaussian/g16RevC.01/g16/l302.exe)
 NPDir=0 NMtPBC=     1 NCelOv=     1 NCel=       1 NClECP=     1 NCelD=      1
         NCelK=      1 NCelE2=     1 NClLst=     1 CellRange=     0.0.
 One-electron integrals computed using PRISM.
   1 Symmetry operations used in ECPInt.
 ECPInt:  NShTT=  608856 NPrTT= 1802125 LenC2=  375905 LenP2D=  710070.
 LDataN:  DoStor=T MaxTD1= 7 Len=  274
 Number of processors reduced to  17 by ecpmxn.
 NBasis=  3005 RedAO= T EigKep=  1.89D-06  NBF=  3005
 NBsUse=  3005 1.00D-06 EigRej= -1.00D+00 NBFU=  3005
 Precomputing XC quadrature grid using
 IXCGrd= 4 IRadAn=           5 IRanWt=          -1 IRanGd=           0 AccXCQ= 0.00D+00.
 Defaulting to unpruned grid for atomic number  53.
 Generated NRdTot=       0 NPtTot=           0 NUsed=           0 NTot=          32
 NSgBfM=  2878  2852  2858  2876  2878 MxSgAt=   117 MxSgA2=   117.
 Leave Link  302 at Tue Jun 11 17:58:58 2024, MaxMem=  8589934592 cpu:             654.5 elap:              21.1
 (Enter /opt/packages/gaussian/g16RevC.01/g16/l303.exe)
 DipDrv:  MaxL=1.
 Leave Link  303 at Tue Jun 11 17:59:00 2024, MaxMem=  8589934592 cpu:              30.4 elap:               1.2
 (Enter /opt/packages/gaussian/g16RevC.01/g16/l401.exe)
 ExpMin= 7.49D-02 ExpMax= 6.07D+04 ExpMxC= 2.07D+03 IAcc=3 IRadAn=         5 AccDes= 0.00D+00
 Harris functional with IExCor=  402 and IRadAn=       5 diagonalized for initial guess.
 HarFok:  IExCor=  402 AccDes= 0.00D+00 IRadAn=         5 IDoV= 1 UseB2=F ITyADJ=14
 ICtDFT=  3500011 ScaDFX=  1.000000  1.000000  1.000000  1.000000
 Defaulting to unpruned grid for atomic number  53.
 FoFCou: FMM=F IPFlag=           0 FMFlag=      100000 FMFlg1=        2001
         NFxFlg=           0 DoJE=T BraDBF=F KetDBF=T FulRan=T
         wScrn=  0.000000 ICntrl=       500 IOpCl=  0 I1Cent=   200000004 NGrid=           0
         NMat0=    1 NMatS0=      1 NMatT0=    0 NMatD0=    1 NMtDS0=    0 NMtDT0=    0
 Symmetry not used in FoFCou.
 Harris En= -4644.99613241170    
 JPrj=0 DoOrth=F DoCkMO=F.
 Leave Link  401 at Tue Jun 11 17:59:25 2024, MaxMem=  8589934592 cpu:             773.7 elap:              24.4
 (Enter /opt/packages/gaussian/g16RevC.01/g16/l502.exe)
 Two-electron integral symmetry not used.
 Closed shell SCF:
 Using DIIS extrapolation, IDIIS=  1040.
 NGot=  8589934592 LenX=  8566133628 LenY=  8554296588
 Requested convergence on RMS density matrix=1.00D-08 within 128 cycles.
 Requested convergence on MAX density matrix=1.00D-06.
 Requested convergence on             energy=1.00D-06.
 No special actions if energy rises.
 Fock matrices will be formed incrementally for  20 cycles.

 Cycle   1  Pass 1  IDiag  1:
 FoFJK:  IHMeth= 1 ICntrl=       0 DoSepK=F KAlg= 0 I1Cent=           0 FoldK=F
 IRaf= 570000000 NMat=       1 IRICut=       1 DoRegI=T DoRafI=F ISym2E= 0 IDoP0=0 IntGTp=1.
 FoFCou: FMM=T IPFlag=           0 FMFlag=      100000 FMFlg1=        2001
         NFxFlg=           0 DoJE=F BraDBF=F KetDBF=F FulRan=T
         wScrn=  0.000000 ICntrl=         0 IOpCl=  0 I1Cent=           0 NGrid=           0
         NMat0=    1 NMatS0=      1 NMatT0=    0 NMatD0=    1 NMtDS0=    0 NMtDT0=    0
 Symmetry not used in FoFCou.
 FMM levels:  10  Number of levels for PrismC:   9
 Defaulting to unpruned grid for atomic number  53.
 Defaulting to unpruned grid for atomic number  53.
 Defaulting to unpruned grid for atomic number  53.
 Defaulting to unpruned grid for atomic number  53.
 Defaulting to unpruned grid for atomic number  53.
 Defaulting to unpruned grid for atomic number  53.
 Defaulting to unpruned grid for atomic number  53.
 Defaulting to unpruned grid for atomic number  53.
 Defaulting to unpruned grid for atomic number  53.
 Defaulting to unpruned grid for atomic number  53.
 Defaulting to unpruned grid for atomic number  53.
 Defaulting to unpruned grid for atomic number  53.
 Defaulting to unpruned grid for atomic number  53.
 Defaulting to unpruned grid for atomic number  53.
 Defaulting to unpruned grid for atomic number  53.
 Defaulting to unpruned grid for atomic number  53.
 Defaulting to unpruned grid for atomic number  53.
 Defaulting to unpruned grid for atomic number  53.
 Defaulting to unpruned grid for atomic number  53.
 Defaulting to unpruned grid for atomic number  53.
 Defaulting to unpruned grid for atomic number  53.
 Defaulting to unpruned grid for atomic number  53.
 Defaulting to unpruned grid for atomic number  53.
 Defaulting to unpruned grid for atomic number  53.
 Defaulting to unpruned grid for atomic number  53.
 Defaulting to unpruned grid for atomic number  53.
 Defaulting to unpruned grid for atomic number  53.
 Defaulting to unpruned grid for atomic number  53.
 Defaulting to unpruned grid for atomic number  53.
 Defaulting to unpruned grid for atomic number  53.
 Defaulting to unpruned grid for atomic number  53.
 Defaulting to unpruned grid for atomic number  53.
 Inv3:  Mode=1 IEnd=   214765563.
 Iteration    1 A*A^-1 deviation from unit magnitude is 3.77D-15 for    203.
 Iteration    1 A*A^-1 deviation from orthogonality  is 2.54D-15 for   3911   3817.
 Iteration    1 A^-1*A deviation from unit magnitude is 3.55D-15 for   6896.
 Iteration    1 A^-1*A deviation from orthogonality  is 1.73D-14 for   4068   4028.
 E= -4643.10070109216    
 DIIS: error= 1.45D-02 at cycle   1 NSaved=   1.
 NSaved= 1 IEnMin= 1 EnMin= -4643.10070109216     IErMin= 1 ErrMin= 1.45D-02
 ErrMax= 1.45D-02  0.00D+00 EMaxC= 1.00D-01 BMatC= 2.39D+00 BMatP= 2.39D+00
 IDIUse=3 WtCom= 8.55D-01 WtEn= 1.45D-01
 Coeff-Com:  0.100D+01
 Coeff-En:   0.100D+01
 Coeff:      0.100D+01
 Gap=     0.292 Goal=   None    Shift=    0.000
 GapD=    0.292 DampG=1.000 DampE=0.500 DampFc=0.5000 IDamp=-1.
 Damping current iteration by 5.00D-01
 RMSDP=2.76D-03 MaxDP=1.58D+00              OVMax= 2.28D-01

 Cycle   2  Pass 1  IDiag  1:
 RMSU=  1.36D-03    CP:  1.06D+00
 E= -4643.63026529108     Delta-E=       -0.529564198918 Rises=F Damp=T
 DIIS: error= 5.57D-03 at cycle   2 NSaved=   2.
 NSaved= 2 IEnMin= 2 EnMin= -4643.63026529108     IErMin= 2 ErrMin= 5.57D-03
 ErrMax= 5.57D-03  0.00D+00 EMaxC= 1.00D-01 BMatC= 3.64D-01 BMatP= 2.39D+00
 IDIUse=3 WtCom= 9.44D-01 WtEn= 5.57D-02
 Coeff-Com:  0.192D+00 0.808D+00
 Coeff-En:   0.330D+00 0.670D+00
 Coeff:      0.199D+00 0.801D+00
 Gap=     0.119 Goal=   None    Shift=    0.000
 RMSDP=1.18D-03 MaxDP=5.14D-01 DE=-5.30D-01 OVMax= 2.53D-01

 Cycle   3  Pass 1  IDiag  1:
 RMSU=  1.01D-03    CP:  1.03D+00  5.60D-01
 E= -4644.62595816662     Delta-E=       -0.995692875542 Rises=F Damp=F
 DIIS: error= 7.28D-03 at cycle   3 NSaved=   3.
 NSaved= 3 IEnMin= 3 EnMin= -4644.62595816662     IErMin= 2 ErrMin= 5.57D-03
 ErrMax= 7.28D-03  0.00D+00 EMaxC= 1.00D-01 BMatC= 4.23D-01 BMatP= 3.64D-01
 IDIUse=3 WtCom= 1.05D-01 WtEn= 8.95D-01
 Coeff-Com:  0.269D-01 0.517D+00 0.457D+00
 Coeff-En:   0.000D+00 0.000D+00 0.100D+01
 Coeff:      0.282D-02 0.542D-01 0.943D+00
 Gap=     0.288 Goal=   None    Shift=    0.000
 RMSDP=1.93D-03 MaxDP=1.16D+00 DE=-9.96D-01 OVMax= 2.43D-01

 Cycle   4  Pass 1  IDiag  1:
 RMSU=  1.04D-03    CP:  1.02D+00  1.03D+00 -4.73D-01
 E= -4643.01291433757     Delta-E=        1.613043829049 Rises=F Damp=F
 DIIS: error= 1.87D-02 at cycle   4 NSaved=   4.
 NSaved= 4 IEnMin= 3 EnMin= -4644.62595816662     IErMin= 2 ErrMin= 5.57D-03
 ErrMax= 1.87D-02  0.00D+00 EMaxC= 1.00D-01 BMatC= 2.48D+00 BMatP= 3.64D-01
 IDIUse=2 WtCom= 0.00D+00 WtEn= 1.00D+00
 Coeff-En:   0.000D+00 0.000D+00 0.783D+00 0.217D+00
 Coeff:      0.000D+00 0.000D+00 0.783D+00 0.217D+00
 Gap=     0.137 Goal=   None    Shift=    0.000
 RMSDP=1.14D-03 MaxDP=9.95D-01 DE= 1.61D+00 OVMax= 1.68D-01

 Cycle   5  Pass 1  IDiag  1:
 RMSU=  3.56D-04    CP:  1.00D+00  6.25D-01  1.42D-01  3.38D-01
 E= -4644.87065081178     Delta-E=       -1.857736474203 Rises=F Damp=F
 DIIS: error= 4.50D-03 at cycle   5 NSaved=   5.
 NSaved= 5 IEnMin= 5 EnMin= -4644.87065081178     IErMin= 5 ErrMin= 4.50D-03
 ErrMax= 4.50D-03  0.00D+00 EMaxC= 1.00D-01 BMatC= 1.53D-01 BMatP= 3.64D-01
 IDIUse=3 WtCom= 9.55D-01 WtEn= 4.50D-02
 Coeff-Com:  0.120D-02 0.143D-01 0.313D+00-0.587D-01 0.731D+00
 Coeff-En:   0.000D+00 0.000D+00 0.307D+00 0.000D+00 0.693D+00
 Coeff:      0.115D-02 0.137D-01 0.312D+00-0.561D-01 0.729D+00
 Gap=     0.132 Goal=   None    Shift=    0.000
 RMSDP=3.28D-04 MaxDP=1.26D-01 DE=-1.86D+00 OVMax= 6.01D-02

 Cycle   6  Pass 1  IDiag  1:
 RMSU=  8.52D-05    CP:  1.01D+00  5.80D-01  4.04D-01  1.90D-01  8.86D-01
 E= -4644.99526332266     Delta-E=       -0.124612510885 Rises=F Damp=F
 DIIS: error= 1.16D-03 at cycle   6 NSaved=   6.
 NSaved= 6 IEnMin= 6 EnMin= -4644.99526332266     IErMin= 6 ErrMin= 1.16D-03
 ErrMax= 1.16D-03  0.00D+00 EMaxC= 1.00D-01 BMatC= 4.61D-03 BMatP= 1.53D-01
 IDIUse=3 WtCom= 9.88D-01 WtEn= 1.16D-02
 Coeff-Com: -0.309D-02 0.993D-02 0.162D+00-0.620D-01 0.490D+00 0.403D+00
 Coeff-En:   0.000D+00 0.000D+00 0.000D+00 0.000D+00 0.000D+00 0.100D+01
 Coeff:     -0.305D-02 0.981D-02 0.160D+00-0.613D-01 0.484D+00 0.410D+00
 Gap=     0.127 Goal=   None    Shift=    0.000
 RMSDP=5.33D-05 MaxDP=2.09D-02 DE=-1.25D-01 OVMax= 1.48D-02

 Cycle   7  Pass 1  IDiag  1:
 RMSU=  3.56D-05    CP:  1.01D+00  5.76D-01  4.17D-01  1.72D-01  9.07D-01
                    CP:  6.34D-01
 E= -4644.99969953376     Delta-E=       -0.004436211104 Rises=F Damp=F
 DIIS: error= 1.35D-04 at cycle   7 NSaved=   7.
 NSaved= 7 IEnMin= 7 EnMin= -4644.99969953376     IErMin= 7 ErrMin= 1.35D-04
 ErrMax= 1.35D-04  0.00D+00 EMaxC= 1.00D-01 BMatC= 2.06D-04 BMatP= 4.61D-03
 IDIUse=3 WtCom= 9.99D-01 WtEn= 1.35D-03
 Coeff-Com: -0.155D-02 0.571D-02 0.630D-01-0.283D-01 0.194D+00 0.223D+00
 Coeff-Com:  0.543D+00
 Coeff-En:   0.000D+00 0.000D+00 0.000D+00 0.000D+00 0.000D+00 0.000D+00
 Coeff-En:   0.100D+01
 Coeff:     -0.155D-02 0.570D-02 0.630D-01-0.282D-01 0.194D+00 0.223D+00
 Coeff:      0.544D+00
 Gap=     0.127 Goal=   None    Shift=    0.000
 RMSDP=1.19D-05 MaxDP=3.47D-03 DE=-4.44D-03 OVMax= 3.14D-03

 Cycle   8  Pass 1  IDiag  1:
 RMSU=  8.59D-06    CP:  1.01D+00  5.76D-01  4.16D-01  1.74D-01  9.05D-01
                    CP:  6.70D-01  7.95D-01
 E= -4644.99985858579     Delta-E=       -0.000159052024 Rises=F Damp=F
 DIIS: error= 8.25D-05 at cycle   8 NSaved=   8.
 NSaved= 8 IEnMin= 8 EnMin= -4644.99985858579     IErMin= 8 ErrMin= 8.25D-05
 ErrMax= 8.25D-05  0.00D+00 EMaxC= 1.00D-01 BMatC= 3.21D-05 BMatP= 2.06D-04
 IDIUse=1 WtCom= 1.00D+00 WtEn= 0.00D+00
 Coeff-Com: -0.231D-03 0.706D-03 0.114D-01-0.578D-02 0.314D-01 0.644D-01
 Coeff-Com:  0.323D+00 0.575D+00
 Coeff:     -0.231D-03 0.706D-03 0.114D-01-0.578D-02 0.314D-01 0.644D-01
 Coeff:      0.323D+00 0.575D+00
 Gap=     0.127 Goal=   None    Shift=    0.000
 RMSDP=5.80D-06 MaxDP=2.41D-03 DE=-1.59D-04 OVMax= 1.40D-03

 Cycle   9  Pass 1  IDiag  1:
 RMSU=  3.17D-06    CP:  1.01D+00  5.76D-01  4.19D-01  1.72D-01  9.04D-01
                    CP:  6.67D-01  8.52D-01  8.24D-01
 E= -4644.99988624584     Delta-E=       -0.000027660053 Rises=F Damp=F
 DIIS: error= 2.09D-05 at cycle   9 NSaved=   9.
 NSaved= 9 IEnMin= 9 EnMin= -4644.99988624584     IErMin= 9 ErrMin= 2.09D-05
 ErrMax= 2.09D-05  0.00D+00 EMaxC= 1.00D-01 BMatC= 3.58D-06 BMatP= 3.21D-05
 IDIUse=1 WtCom= 1.00D+00 WtEn= 0.00D+00
 Coeff-Com:  0.397D-04-0.392D-03 0.500D-03-0.267D-03-0.160D-02 0.150D-01
 Coeff-Com:  0.129D+00 0.332D+00 0.526D+00
 Coeff:      0.397D-04-0.392D-03 0.500D-03-0.267D-03-0.160D-02 0.150D-01
 Coeff:      0.129D+00 0.332D+00 0.526D+00
 Gap=     0.127 Goal=   None    Shift=    0.000
 RMSDP=1.47D-06 MaxDP=4.45D-04 DE=-2.77D-05 OVMax= 3.46D-04

 Cycle  10  Pass 1  IDiag  1:
 RMSU=  8.78D-07    CP:  1.01D+00  5.76D-01  4.19D-01  1.72D-01  9.04D-01
                    CP:  6.72D-01  8.45D-01  8.27D-01  7.44D-01
 E= -4644.99988935256     Delta-E=       -0.000003106719 Rises=F Damp=F
 DIIS: error= 5.99D-06 at cycle  10 NSaved=  10.
 NSaved=10 IEnMin=10 EnMin= -4644.99988935256     IErMin=10 ErrMin= 5.99D-06
 ErrMax= 5.99D-06  0.00D+00 EMaxC= 1.00D-01 BMatC= 3.14D-07 BMatP= 3.58D-06
 IDIUse=1 WtCom= 1.00D+00 WtEn= 0.00D+00
 Coeff-Com:  0.219D-04-0.221D-03-0.520D-03 0.214D-03-0.292D-02 0.397D-02
 Coeff-Com:  0.476D-01 0.141D+00 0.299D+00 0.511D+00
 Coeff:      0.219D-04-0.221D-03-0.520D-03 0.214D-03-0.292D-02 0.397D-02
 Coeff:      0.476D-01 0.141D+00 0.299D+00 0.511D+00
 Gap=     0.127 Goal=   None    Shift=    0.000
 RMSDP=5.54D-07 MaxDP=1.48D-04 DE=-3.11D-06 OVMax= 1.83D-04

 Cycle  11  Pass 1  IDiag  1:
 RMSU=  3.72D-07    CP:  1.01D+00  5.76D-01  4.19D-01  1.72D-01  9.04D-01
                    CP:  6.73D-01  8.52D-01  8.24D-01  7.62D-01  8.06D-01
 E= -4644.99988959182     Delta-E=       -0.000000239257 Rises=F Damp=F
 DIIS: error= 3.20D-06 at cycle  11 NSaved=  11.
 NSaved=11 IEnMin=11 EnMin= -4644.99988959182     IErMin=11 ErrMin= 3.20D-06
 ErrMax= 3.20D-06  0.00D+00 EMaxC= 1.00D-01 BMatC= 5.48D-08 BMatP= 3.14D-07
 IDIUse=1 WtCom= 1.00D+00 WtEn= 0.00D+00
 Coeff-Com:  0.269D-05-0.563D-04-0.495D-03 0.168D-03-0.188D-02 0.784D-03
 Coeff-Com:  0.158D-01 0.525D-01 0.132D+00 0.330D+00 0.471D+00
 Coeff:      0.269D-05-0.563D-04-0.495D-03 0.168D-03-0.188D-02 0.784D-03
 Coeff:      0.158D-01 0.525D-01 0.132D+00 0.330D+00 0.471D+00
 Gap=     0.127 Goal=   None    Shift=    0.000
 RMSDP=1.59D-07 MaxDP=6.19D-05 DE=-2.39D-07 OVMax= 5.43D-05

 Cycle  12  Pass 1  IDiag  1:
 RMSU=  1.37D-07    CP:  1.01D+00  5.76D-01  4.19D-01  1.72D-01  9.04D-01
                    CP:  6.73D-01  8.52D-01  8.29D-01  7.65D-01  8.24D-01
                    CP:  9.23D-01
 E= -4644.99988963756     Delta-E=       -0.000000045744 Rises=F Damp=F
 DIIS: error= 1.21D-06 at cycle  12 NSaved=  12.
 NSaved=12 IEnMin=12 EnMin= -4644.99988963756     IErMin=12 ErrMin= 1.21D-06
 ErrMax= 1.21D-06  0.00D+00 EMaxC= 1.00D-01 BMatC= 7.10D-09 BMatP= 5.48D-08
 IDIUse=1 WtCom= 1.00D+00 WtEn= 0.00D+00
 Coeff-Com: -0.602D-05 0.146D-04-0.240D-03 0.718D-04-0.651D-03-0.293D-03
 Coeff-Com:  0.392D-03 0.470D-02 0.222D-01 0.102D+00 0.280D+00 0.591D+00
 Coeff:     -0.602D-05 0.146D-04-0.240D-03 0.718D-04-0.651D-03-0.293D-03
 Coeff:      0.392D-03 0.470D-02 0.222D-01 0.102D+00 0.280D+00 0.591D+00
 Gap=     0.127 Goal=   None    Shift=    0.000
 RMSDP=8.44D-08 MaxDP=2.33D-05 DE=-4.57D-08 OVMax= 2.58D-05

 Cycle  13  Pass 1  IDiag  1:
 RMSU=  5.26D-08    CP:  1.01D+00  5.76D-01  4.19D-01  1.72D-01  9.04D-01
                    CP:  6.73D-01  8.51D-01  8.29D-01  7.65D-01  8.47D-01
                    CP:  9.38D-01  8.00D-01
 E= -4644.99988964409     Delta-E=       -0.000000006528 Rises=F Damp=F
 DIIS: error= 3.04D-07 at cycle  13 NSaved=  13.
 NSaved=13 IEnMin=13 EnMin= -4644.99988964409     IErMin=13 ErrMin= 3.04D-07
 ErrMax= 3.04D-07  0.00D+00 EMaxC= 1.00D-01 BMatC= 1.26D-09 BMatP= 7.10D-09
 IDIUse=1 WtCom= 1.00D+00 WtEn= 0.00D+00
 Coeff-Com: -0.517D-05 0.157D-04-0.674D-04 0.173D-04-0.960D-04-0.233D-03
 Coeff-Com: -0.190D-02-0.454D-02-0.565D-02 0.150D-01 0.939D-01 0.361D+00
 Coeff-Com:  0.543D+00
 Coeff:     -0.517D-05 0.157D-04-0.674D-04 0.173D-04-0.960D-04-0.233D-03
 Coeff:     -0.190D-02-0.454D-02-0.565D-02 0.150D-01 0.939D-01 0.361D+00
 Coeff:      0.543D+00
 Gap=     0.127 Goal=   None    Shift=    0.000
 RMSDP=3.18D-08 MaxDP=1.08D-05 DE=-6.53D-09 OVMax= 9.71D-06

 Cycle  14  Pass 1  IDiag  1:
 RMSU=  2.03D-08    CP:  1.01D+00  5.76D-01  4.19D-01  1.72D-01  9.04D-01
                    CP:  6.73D-01  8.52D-01  8.29D-01  7.68D-01  8.50D-01
                    CP:  9.43D-01  8.59D-01  8.90D-01
 E= -4644.99988964509     Delta-E=       -0.000000001004 Rises=F Damp=F
 DIIS: error= 1.79D-07 at cycle  14 NSaved=  14.
 NSaved=14 IEnMin=14 EnMin= -4644.99988964509     IErMin=14 ErrMin= 1.79D-07
 ErrMax= 1.79D-07  0.00D+00 EMaxC= 1.00D-01 BMatC= 1.48D-10 BMatP= 1.26D-09
 IDIUse=1 WtCom= 1.00D+00 WtEn= 0.00D+00
 Coeff-Com: -0.237D-05 0.774D-05-0.707D-05-0.279D-06 0.340D-04-0.935D-04
 Coeff-Com: -0.118D-02-0.339D-02-0.686D-02-0.596D-02 0.111D-01 0.124D+00
 Coeff-Com:  0.322D+00 0.560D+00
 Coeff:     -0.237D-05 0.774D-05-0.707D-05-0.279D-06 0.340D-04-0.935D-04
 Coeff:     -0.118D-02-0.339D-02-0.686D-02-0.596D-02 0.111D-01 0.124D+00
 Coeff:      0.322D+00 0.560D+00
 Gap=     0.127 Goal=   None    Shift=    0.000
 RMSDP=1.39D-08 MaxDP=4.19D-06 DE=-1.00D-09 OVMax= 2.54D-06

 Cycle  15  Pass 1  IDiag  1:
 RMSU=  7.92D-09    CP:  1.01D+00  5.76D-01  4.19D-01  1.72D-01  9.04D-01
                    CP:  6.73D-01  8.52D-01  8.29D-01  7.69D-01  8.50D-01
                    CP:  9.55D-01  8.83D-01  9.15D-01  8.03D-01
 E= -4644.99988964555     Delta-E=       -0.000000000451 Rises=F Damp=F
 DIIS: error= 8.13D-08 at cycle  15 NSaved=  15.
 NSaved=15 IEnMin=15 EnMin= -4644.99988964555     IErMin=15 ErrMin= 8.13D-08
 ErrMax= 8.13D-08  0.00D+00 EMaxC= 1.00D-01 BMatC= 1.76D-11 BMatP= 1.48D-10
 IDIUse=1 WtCom= 1.00D+00 WtEn= 0.00D+00
 Coeff-Com: -0.605D-06 0.199D-05 0.352D-05-0.183D-05 0.262D-04-0.236D-04
 Coeff-Com: -0.387D-03-0.119D-02-0.290D-02-0.439D-02-0.567D-02 0.237D-01
 Coeff-Com:  0.115D+00 0.316D+00 0.560D+00
 Coeff:     -0.605D-06 0.199D-05 0.352D-05-0.183D-05 0.262D-04-0.236D-04
 Coeff:     -0.387D-03-0.119D-02-0.290D-02-0.439D-02-0.567D-02 0.237D-01
 Coeff:      0.115D+00 0.316D+00 0.560D+00
 Gap=     0.127 Goal=   None    Shift=    0.000
 RMSDP=4.15D-09 MaxDP=1.10D-06 DE=-4.51D-10 OVMax= 1.78D-06

 Cycle  16  Pass 1  IDiag  1:
 RMSU=  2.77D-09    CP:  1.01D+00  5.76D-01  4.19D-01  1.72D-01  9.04D-01
                    CP:  6.73D-01  8.52D-01  8.29D-01  7.69D-01  8.51D-01
                    CP:  9.56D-01  8.83D-01  9.27D-01  8.27D-01  8.54D-01
 E= -4644.99988964521     Delta-E=        0.000000000333 Rises=F Damp=F
 DIIS: error= 1.82D-08 at cycle  16 NSaved=  16.
 NSaved=16 IEnMin=15 EnMin= -4644.99988964555     IErMin=16 ErrMin= 1.82D-08
 ErrMax= 1.82D-08  0.00D+00 EMaxC= 1.00D-01 BMatC= 4.40D-12 BMatP= 1.76D-11
 IDIUse=1 WtCom= 1.00D+00 WtEn= 0.00D+00
 Coeff-Com: -0.300D-07 0.253D-06 0.366D-05-0.130D-05 0.131D-04-0.267D-05
 Coeff-Com: -0.923D-04-0.306D-03-0.973D-03-0.204D-02-0.583D-02-0.279D-02
 Coeff-Com:  0.308D-01 0.128D+00 0.373D+00 0.481D+00
 Coeff:     -0.300D-07 0.253D-06 0.366D-05-0.130D-05 0.131D-04-0.267D-05
 Coeff:     -0.923D-04-0.306D-03-0.973D-03-0.204D-02-0.583D-02-0.279D-02
 Coeff:      0.308D-01 0.128D+00 0.373D+00 0.481D+00
 Gap=     0.127 Goal=   None    Shift=    0.000
 RMSDP=1.78D-09 MaxDP=6.74D-07 DE= 3.33D-10 OVMax= 4.30D-07

 Error on total polarization charges =  0.08310
 SCF Done:  E(RB3LYP) =  -4644.99988965     A.U. after   16 cycles
            NFock= 16  Conv=0.18D-08     -V/T= 2.0457
 KE= 4.441806982317D+03 PE=-4.161830136304D+04 EE= 1.713601974160D+04
 SMD-CDS (non-electrostatic) energy       (kcal/mol) =     -13.64
 (included in total energy above)
 Leave Link  502 at Tue Jun 11 19:29:01 2024, MaxMem=  8589934592 cpu:          170414.0 elap:            5375.6
 (Enter /opt/packages/gaussian/g16RevC.01/g16/l601.exe)
 Copying SCF densities to generalized density rwf, IOpCl= 0 IROHF=0.
 Hyperfine terms turned off by default for NAtoms > 100.

 **********************************************************************

            Population analysis using the SCF Density.

 **********************************************************************

 Alpha  occ. eigenvalues --  -89.04328 -89.04291 -24.72175 -24.71866 -24.71796
 Alpha  occ. eigenvalues --  -24.71749 -24.71384 -24.71359 -24.69632 -19.13841
 Alpha  occ. eigenvalues --  -19.10653 -19.10511 -19.10476 -19.10451 -14.37894
 Alpha  occ. eigenvalues --  -14.32309 -14.31133 -10.42851 -10.42471 -10.28065
 Alpha  occ. eigenvalues --  -10.26760 -10.26046 -10.22626 -10.22360 -10.22256
 Alpha  occ. eigenvalues --  -10.22130 -10.22088 -10.21896 -10.21860 -10.21792
 Alpha  occ. eigenvalues --  -10.21774 -10.21428 -10.21405 -10.21361 -10.21332
 Alpha  occ. eigenvalues --  -10.20900 -10.20694 -10.20617 -10.20336 -10.20179
 Alpha  occ. eigenvalues --  -10.19991 -10.19939 -10.19790 -10.19614 -10.19480
 Alpha  occ. eigenvalues --  -10.19285 -10.19257 -10.19253 -10.19028 -10.18885
 Alpha  occ. eigenvalues --  -10.18874 -10.18873 -10.18858 -10.18828 -10.18775
 Alpha  occ. eigenvalues --  -10.18744 -10.18664 -10.18449 -10.18367 -10.18323
 Alpha  occ. eigenvalues --  -10.18316 -10.18297 -10.18254 -10.18237 -10.18195
 Alpha  occ. eigenvalues --  -10.18165 -10.18165 -10.18118 -10.18091 -10.17974
 Alpha  occ. eigenvalues --  -10.17960 -10.17917 -10.17886 -10.17848 -10.17830
 Alpha  occ. eigenvalues --  -10.17622 -10.16840  -8.08927  -8.08838  -6.83791
 Alpha  occ. eigenvalues --   -6.05261  -6.05175  -6.05146  -6.05111  -6.05066
 Alpha  occ. eigenvalues --   -6.05027  -4.86300  -4.85029  -4.85020  -1.91096
 Alpha  occ. eigenvalues --   -1.90692  -1.90678  -1.89594  -1.89592  -1.32881
 Alpha  occ. eigenvalues --   -1.32483  -1.23924  -1.23861  -1.23479  -1.23450
 Alpha  occ. eigenvalues --   -1.23074  -1.12636  -1.11207  -1.05845  -1.00916
 Alpha  occ. eigenvalues --   -1.00446  -1.00287  -0.95046  -0.91140  -0.89748
 Alpha  occ. eigenvalues --   -0.88720  -0.88429  -0.88239  -0.88123  -0.85654
 Alpha  occ. eigenvalues --   -0.84683  -0.84410  -0.84238  -0.82146  -0.80862
 Alpha  occ. eigenvalues --   -0.79755  -0.79504  -0.78892  -0.78768  -0.78510
 Alpha  occ. eigenvalues --   -0.78443  -0.77586  -0.76893  -0.76757  -0.75880
 Alpha  occ. eigenvalues --   -0.75180  -0.74932  -0.74898  -0.73844  -0.73094
 Alpha  occ. eigenvalues --   -0.72765  -0.72169  -0.71433  -0.70882  -0.70558
 Alpha  occ. eigenvalues --   -0.68496  -0.68375  -0.67338  -0.66778  -0.65428
 Alpha  occ. eigenvalues --   -0.65112  -0.65088  -0.63937  -0.63854  -0.63594
 Alpha  occ. eigenvalues --   -0.63246  -0.63000  -0.62804  -0.62594  -0.62034
 Alpha  occ. eigenvalues --   -0.61175  -0.60524  -0.60103  -0.60066  -0.60056
 Alpha  occ. eigenvalues --   -0.59710  -0.59043  -0.58688  -0.58222  -0.57865
 Alpha  occ. eigenvalues --   -0.57708  -0.57530  -0.55608  -0.55364  -0.55208
 Alpha  occ. eigenvalues --   -0.54262  -0.53393  -0.53228  -0.53054  -0.52185
 Alpha  occ. eigenvalues --   -0.51976  -0.51506  -0.51475  -0.50737  -0.50194
 Alpha  occ. eigenvalues --   -0.49914  -0.49719  -0.49021  -0.48975  -0.48729
 Alpha  occ. eigenvalues --   -0.48573  -0.48351  -0.48284  -0.48177  -0.47963
 Alpha  occ. eigenvalues --   -0.47946  -0.47597  -0.47444  -0.47396  -0.47186
 Alpha  occ. eigenvalues --   -0.47041  -0.46824  -0.46483  -0.46174  -0.46017
 Alpha  occ. eigenvalues --   -0.45900  -0.45635  -0.45531  -0.45432  -0.45150
 Alpha  occ. eigenvalues --   -0.45096  -0.44902  -0.44602  -0.44539  -0.44441
 Alpha  occ. eigenvalues --   -0.44185  -0.43951  -0.43685  -0.43569  -0.43310
 Alpha  occ. eigenvalues --   -0.43056  -0.42874  -0.42824  -0.42807  -0.42408
 Alpha  occ. eigenvalues --   -0.42310  -0.42167  -0.41761  -0.41633  -0.41220
 Alpha  occ. eigenvalues --   -0.41139  -0.40979  -0.40965  -0.40851  -0.40565
 Alpha  occ. eigenvalues --   -0.40158  -0.39735  -0.39470  -0.39239  -0.39190
 Alpha  occ. eigenvalues --   -0.38901  -0.38264  -0.37914  -0.37831  -0.37676
 Alpha  occ. eigenvalues --   -0.37318  -0.37067  -0.36798  -0.36702  -0.36675
 Alpha  occ. eigenvalues --   -0.36488  -0.36370  -0.36242  -0.36198  -0.36027
 Alpha  occ. eigenvalues --   -0.35927  -0.35693  -0.35291  -0.35218  -0.34927
 Alpha  occ. eigenvalues --   -0.34354  -0.34259  -0.33997  -0.33784  -0.33203
 Alpha  occ. eigenvalues --   -0.32798  -0.32709  -0.31688  -0.31670  -0.31281
 Alpha  occ. eigenvalues --   -0.31132  -0.30916  -0.29366  -0.29204  -0.28955
 Alpha  occ. eigenvalues --   -0.28814  -0.28281  -0.27779  -0.27617  -0.27474
 Alpha  occ. eigenvalues --   -0.27452  -0.27272  -0.26795  -0.26635  -0.26332
 Alpha  occ. eigenvalues --   -0.26228  -0.25934  -0.25656  -0.24865  -0.24739
 Alpha  occ. eigenvalues --   -0.24096  -0.23764  -0.22870  -0.22158  -0.21669
 Alpha virt. eigenvalues --   -0.08960  -0.07570  -0.07320  -0.06256  -0.05593
 Alpha virt. eigenvalues --   -0.05278  -0.03687  -0.03438  -0.03144  -0.02575
 Alpha virt. eigenvalues --   -0.02327  -0.01905  -0.01700  -0.00372  -0.00081
 Alpha virt. eigenvalues --    0.00584   0.00845   0.03335   0.03474   0.04042
 Alpha virt. eigenvalues --    0.04243   0.04611   0.04814   0.04937   0.05310
 Alpha virt. eigenvalues --    0.05391   0.05634   0.05881   0.05905   0.06459
 Alpha virt. eigenvalues --    0.06629   0.06840   0.06978   0.07320   0.07437
 Alpha virt. eigenvalues --    0.07563   0.08086   0.08129   0.08322   0.08585
 Alpha virt. eigenvalues --    0.08703   0.09061   0.09093   0.09221   0.09575
 Alpha virt. eigenvalues --    0.09679   0.09784   0.09885   0.10102   0.10212
 Alpha virt. eigenvalues --    0.10376   0.10472   0.10728   0.10893   0.10945
 Alpha virt. eigenvalues --    0.11084   0.11198   0.11328   0.11500   0.11721
 Alpha virt. eigenvalues --    0.11962   0.12165   0.12307   0.12494   0.12540
 Alpha virt. eigenvalues --    0.12812   0.12963   0.13031   0.13148   0.13285
 Alpha virt. eigenvalues --    0.13392   0.13750   0.13902   0.14085   0.14293
 Alpha virt. eigenvalues --    0.14494   0.14587   0.14700   0.14714   0.14786
 Alpha virt. eigenvalues --    0.14920   0.15021   0.15225   0.15321   0.15827
 Alpha virt. eigenvalues --    0.15913   0.16280   0.16482   0.16565   0.16726
 Alpha virt. eigenvalues --    0.16971   0.17154   0.17536   0.17610   0.17679
 Alpha virt. eigenvalues --    0.18057   0.18179   0.18342   0.18504   0.18811
 Alpha virt. eigenvalues --    0.18896   0.19138   0.19212   0.19413   0.19511
 Alpha virt. eigenvalues --    0.19657   0.19722   0.20117   0.20199   0.20253
 Alpha virt. eigenvalues --    0.20490   0.20538   0.20583   0.20645   0.20858
 Alpha virt. eigenvalues --    0.20978   0.20984   0.21254   0.21388   0.21502
 Alpha virt. eigenvalues --    0.21696   0.21744   0.21763   0.22070   0.22159
 Alpha virt. eigenvalues --    0.22227   0.22284   0.22523   0.22634   0.22856
 Alpha virt. eigenvalues --    0.23015   0.23137   0.23344   0.23508   0.23556
 Alpha virt. eigenvalues --    0.23664   0.23813   0.23955   0.24132   0.24162
 Alpha virt. eigenvalues --    0.24332   0.24560   0.24686   0.24754   0.24938
 Alpha virt. eigenvalues --    0.25029   0.25191   0.25338   0.25523   0.25710
 Alpha virt. eigenvalues --    0.25760   0.25998   0.26045   0.26384   0.26476
 Alpha virt. eigenvalues --    0.26490   0.26857   0.26880   0.27245   0.27590
 Alpha virt. eigenvalues --    0.27640   0.27747   0.27979   0.28209   0.28258
 Alpha virt. eigenvalues --    0.28376   0.28524   0.28639   0.28851   0.29118
 Alpha virt. eigenvalues --    0.29156   0.29408   0.29481   0.29613   0.29698
 Alpha virt. eigenvalues --    0.29782   0.29933   0.30069   0.30192   0.30344
 Alpha virt. eigenvalues --    0.30573   0.30780   0.30846   0.31114   0.31205
 Alpha virt. eigenvalues --    0.31399   0.31428   0.31669   0.31714   0.31821
 Alpha virt. eigenvalues --    0.31977   0.32178   0.32432   0.32497   0.32621
 Alpha virt. eigenvalues --    0.32734   0.32977   0.33097   0.33150   0.33286
 Alpha virt. eigenvalues --    0.33412   0.33691   0.33768   0.33912   0.33986
 Alpha virt. eigenvalues --    0.34150   0.34305   0.34409   0.34501   0.34618
 Alpha virt. eigenvalues --    0.34757   0.34953   0.35227   0.35279   0.35676
 Alpha virt. eigenvalues --    0.35748   0.35950   0.36100   0.36298   0.36429
 Alpha virt. eigenvalues --    0.36504   0.36637   0.36808   0.36895   0.37168
 Alpha virt. eigenvalues --    0.37181   0.37483   0.37755   0.37777   0.37912
 Alpha virt. eigenvalues --    0.38115   0.38433   0.38570   0.38636   0.38715
 Alpha virt. eigenvalues --    0.38870   0.39018   0.39187   0.39299   0.39427
 Alpha virt. eigenvalues --    0.39546   0.39689   0.39787   0.40162   0.40251
 Alpha virt. eigenvalues --    0.40315   0.40519   0.40596   0.40916   0.40990
 Alpha virt. eigenvalues --    0.41186   0.41316   0.41386   0.41519   0.41648
 Alpha virt. eigenvalues --    0.41847   0.41921   0.42034   0.42112   0.42236
 Alpha virt. eigenvalues --    0.42411   0.42506   0.42677   0.42945   0.43034
 Alpha virt. eigenvalues --    0.43063   0.43368   0.43457   0.43496   0.43583
 Alpha virt. eigenvalues --    0.43723   0.43763   0.43857   0.44100   0.44187
 Alpha virt. eigenvalues --    0.44423   0.44508   0.44715   0.44775   0.44911
 Alpha virt. eigenvalues --    0.44967   0.45123   0.45391   0.45567   0.45624
 Alpha virt. eigenvalues --    0.45836   0.45966   0.46147   0.46239   0.46340
 Alpha virt. eigenvalues --    0.46565   0.46644   0.46730   0.46939   0.47091
 Alpha virt. eigenvalues --    0.47257   0.47388   0.47506   0.47594   0.47902
 Alpha virt. eigenvalues --    0.48053   0.48275   0.48322   0.48518   0.48658
 Alpha virt. eigenvalues --    0.48855   0.49026   0.49111   0.49245   0.49454
 Alpha virt. eigenvalues --    0.49632   0.49851   0.49901   0.49956   0.50021
 Alpha virt. eigenvalues --    0.50126   0.50274   0.50537   0.50703   0.50844
 Alpha virt. eigenvalues --    0.51079   0.51358   0.51419   0.51745   0.51937
 Alpha virt. eigenvalues --    0.52094   0.52186   0.52367   0.52444   0.52576
 Alpha virt. eigenvalues --    0.52733   0.52949   0.53129   0.53206   0.53362
 Alpha virt. eigenvalues --    0.53787   0.53958   0.54216   0.54223   0.54286
 Alpha virt. eigenvalues --    0.54746   0.54908   0.54991   0.55198   0.55444
 Alpha virt. eigenvalues --    0.55605   0.55766   0.55874   0.56030   0.56404
 Alpha virt. eigenvalues --    0.56621   0.56756   0.57108   0.57254   0.57475
 Alpha virt. eigenvalues --    0.57615   0.57827   0.58035   0.58098   0.58197
 Alpha virt. eigenvalues --    0.58411   0.58718   0.58905   0.59143   0.59362
 Alpha virt. eigenvalues --    0.59585   0.59900   0.59959   0.60368   0.60588
 Alpha virt. eigenvalues --    0.60636   0.60822   0.61105   0.61171   0.61334
 Alpha virt. eigenvalues --    0.61417   0.61889   0.62014   0.62232   0.62334
 Alpha virt. eigenvalues --    0.62660   0.62757   0.62960   0.63085   0.63093
 Alpha virt. eigenvalues --    0.63346   0.63518   0.63615   0.63869   0.64024
 Alpha virt. eigenvalues --    0.64190   0.64304   0.64621   0.64743   0.64818
 Alpha virt. eigenvalues --    0.64964   0.65104   0.65373   0.65588   0.65850
 Alpha virt. eigenvalues --    0.65978   0.66148   0.66209   0.66490   0.66580
 Alpha virt. eigenvalues --    0.66671   0.66767   0.66977   0.67089   0.67348
 Alpha virt. eigenvalues --    0.67473   0.67551   0.67799   0.67949   0.68050
 Alpha virt. eigenvalues --    0.68169   0.68450   0.68588   0.68760   0.68836
 Alpha virt. eigenvalues --    0.68914   0.69058   0.69187   0.69249   0.69345
 Alpha virt. eigenvalues --    0.69497   0.69713   0.69809   0.69902   0.69971
 Alpha virt. eigenvalues --    0.70108   0.70413   0.70725   0.70860   0.71084
 Alpha virt. eigenvalues --    0.71333   0.71477   0.71500   0.71640   0.71926
 Alpha virt. eigenvalues --    0.72191   0.72259   0.72360   0.72584   0.72718
 Alpha virt. eigenvalues --    0.72945   0.73010   0.73104   0.73115   0.73528
 Alpha virt. eigenvalues --    0.73603   0.73827   0.73988   0.74249   0.74414
 Alpha virt. eigenvalues --    0.74512   0.74744   0.74999   0.75037   0.75208
 Alpha virt. eigenvalues --    0.75350   0.75494   0.75757   0.75932   0.76137
 Alpha virt. eigenvalues --    0.76343   0.76475   0.76719   0.76877   0.76926
 Alpha virt. eigenvalues --    0.77179   0.77433   0.77503   0.77702   0.77805
 Alpha virt. eigenvalues --    0.77988   0.78139   0.78388   0.78490   0.78701
 Alpha virt. eigenvalues --    0.78903   0.78963   0.79208   0.79458   0.79793
 Alpha virt. eigenvalues --    0.79914   0.80079   0.80223   0.80346   0.80491
 Alpha virt. eigenvalues --    0.80628   0.80841   0.80944   0.81190   0.81650
 Alpha virt. eigenvalues --    0.81792   0.81872   0.82135   0.82198   0.82456
 Alpha virt. eigenvalues --    0.82625   0.82869   0.82956   0.83081   0.83264
 Alpha virt. eigenvalues --    0.83383   0.83688   0.83761   0.83948   0.84144
 Alpha virt. eigenvalues --    0.84361   0.84649   0.84705   0.84904   0.85067
 Alpha virt. eigenvalues --    0.85178   0.85307   0.85348   0.85583   0.86105
 Alpha virt. eigenvalues --    0.86299   0.86319   0.86503   0.86661   0.86888
 Alpha virt. eigenvalues --    0.87044   0.87271   0.87339   0.87511   0.87682
 Alpha virt. eigenvalues --    0.88221   0.88451   0.88587   0.88758   0.88907
 Alpha virt. eigenvalues --    0.89098   0.89291   0.89320   0.89609   0.89662
 Alpha virt. eigenvalues --    0.89812   0.90278   0.90367   0.90447   0.90647
 Alpha virt. eigenvalues --    0.90794   0.90992   0.91152   0.91193   0.91371
 Alpha virt. eigenvalues --    0.91520   0.91600   0.91949   0.92069   0.92372
 Alpha virt. eigenvalues --    0.92537   0.92738   0.92877   0.92990   0.93220
 Alpha virt. eigenvalues --    0.93388   0.93834   0.93984   0.94349   0.94403
 Alpha virt. eigenvalues --    0.94669   0.94764   0.94972   0.95038   0.95182
 Alpha virt. eigenvalues --    0.95257   0.95637   0.95710   0.95943   0.96006
 Alpha virt. eigenvalues --    0.96148   0.96316   0.96517   0.96577   0.96766
 Alpha virt. eigenvalues --    0.97023   0.97075   0.97450   0.97694   0.97979
 Alpha virt. eigenvalues --    0.98038   0.98240   0.98320   0.98453   0.98574
 Alpha virt. eigenvalues --    0.98738   0.98970   0.99198   0.99234   0.99682
 Alpha virt. eigenvalues --    0.99751   1.00067   1.00256   1.00513   1.00674
 Alpha virt. eigenvalues --    1.00953   1.01122   1.01269   1.01390   1.01545
 Alpha virt. eigenvalues --    1.01872   1.01995   1.02132   1.02311   1.02514
 Alpha virt. eigenvalues --    1.02783   1.03015   1.03284   1.03313   1.03491
 Alpha virt. eigenvalues --    1.03811   1.04084   1.04177   1.04314   1.04520
 Alpha virt. eigenvalues --    1.04956   1.05096   1.05203   1.05357   1.05570
 Alpha virt. eigenvalues --    1.05916   1.06097   1.06188   1.06393   1.06578
 Alpha virt. eigenvalues --    1.06705   1.06992   1.07159   1.07377   1.07614
 Alpha virt. eigenvalues --    1.07805   1.08222   1.08326   1.08428   1.08748
 Alpha virt. eigenvalues --    1.08942   1.09264   1.09366   1.09462   1.09742
 Alpha virt. eigenvalues --    1.09968   1.10076   1.10331   1.10460   1.10694
 Alpha virt. eigenvalues --    1.10859   1.10973   1.11308   1.11397   1.11671
 Alpha virt. eigenvalues --    1.11764   1.11938   1.12174   1.12352   1.12539
 Alpha virt. eigenvalues --    1.12803   1.12932   1.13058   1.13157   1.13305
 Alpha virt. eigenvalues --    1.13555   1.14113   1.14355   1.14410   1.14582
 Alpha virt. eigenvalues --    1.14728   1.15038   1.15097   1.15313   1.15463
 Alpha virt. eigenvalues --    1.15579   1.15782   1.15931   1.16091   1.16243
 Alpha virt. eigenvalues --    1.16319   1.16564   1.16810   1.17040   1.17285
 Alpha virt. eigenvalues --    1.17412   1.17522   1.17836   1.17935   1.18051
 Alpha virt. eigenvalues --    1.18224   1.18333   1.18418   1.18727   1.19042
 Alpha virt. eigenvalues --    1.19271   1.19721   1.19908   1.20055   1.20229
 Alpha virt. eigenvalues --    1.20551   1.20650   1.20848   1.21221   1.21400
 Alpha virt. eigenvalues --    1.21566   1.21743   1.21908   1.22066   1.22253
 Alpha virt. eigenvalues --    1.22428   1.22628   1.22850   1.23159   1.23310
 Alpha virt. eigenvalues --    1.23601   1.23828   1.24092   1.24300   1.24467
 Alpha virt. eigenvalues --    1.24661   1.24965   1.25457   1.25575   1.25713
 Alpha virt. eigenvalues --    1.25743   1.26051   1.26091   1.26299   1.26408
 Alpha virt. eigenvalues --    1.26589   1.26826   1.27161   1.27374   1.27591
 Alpha virt. eigenvalues --    1.27635   1.27766   1.28135   1.28272   1.28471
 Alpha virt. eigenvalues --    1.28551   1.28683   1.28861   1.28971   1.29319
 Alpha virt. eigenvalues --    1.29447   1.29829   1.30013   1.30317   1.30339
 Alpha virt. eigenvalues --    1.30572   1.30709   1.30868   1.30971   1.31250
 Alpha virt. eigenvalues --    1.31327   1.31604   1.31693   1.32080   1.32185
 Alpha virt. eigenvalues --    1.32208   1.32473   1.32623   1.32786   1.32926
 Alpha virt. eigenvalues --    1.33241   1.33269   1.33443   1.33556   1.33822
 Alpha virt. eigenvalues --    1.33895   1.34064   1.34112   1.34472   1.34631
 Alpha virt. eigenvalues --    1.34803   1.35155   1.35241   1.35457   1.35534
 Alpha virt. eigenvalues --    1.35708   1.36098   1.36153   1.36311   1.36406
 Alpha virt. eigenvalues --    1.36544   1.36785   1.36936   1.37039   1.37222
 Alpha virt. eigenvalues --    1.37333   1.37451   1.37673   1.37926   1.38191
 Alpha virt. eigenvalues --    1.38340   1.38734   1.38839   1.39100   1.39509
 Alpha virt. eigenvalues --    1.39573   1.39674   1.39771   1.40198   1.40325
 Alpha virt. eigenvalues --    1.40502   1.40635   1.40793   1.40944   1.41044
 Alpha virt. eigenvalues --    1.41372   1.41628   1.41830   1.42027   1.42094
 Alpha virt. eigenvalues --    1.42212   1.42388   1.42574   1.42923   1.43142
 Alpha virt. eigenvalues --    1.43177   1.43545   1.43744   1.44089   1.44321
 Alpha virt. eigenvalues --    1.44333   1.44587   1.44988   1.45127   1.45307
 Alpha virt. eigenvalues --    1.45464   1.45665   1.45915   1.45971   1.46282
 Alpha virt. eigenvalues --    1.46405   1.46577   1.46967   1.47057   1.47211
 Alpha virt. eigenvalues --    1.47271   1.47686   1.47830   1.48090   1.48307
 Alpha virt. eigenvalues --    1.48466   1.48749   1.48878   1.49338   1.49435
 Alpha virt. eigenvalues --    1.49746   1.49905   1.49970   1.50327   1.50664
 Alpha virt. eigenvalues --    1.51032   1.51469   1.51643   1.51873   1.52097
 Alpha virt. eigenvalues --    1.52430   1.52637   1.52757   1.52821   1.53114
 Alpha virt. eigenvalues --    1.53301   1.53493   1.53561   1.53762   1.54090
 Alpha virt. eigenvalues --    1.54186   1.54419   1.54571   1.54845   1.55291
 Alpha virt. eigenvalues --    1.55446   1.55578   1.55745   1.55845   1.56228
 Alpha virt. eigenvalues --    1.56301   1.56486   1.56686   1.56886   1.57340
 Alpha virt. eigenvalues --    1.57473   1.57544   1.57930   1.58237   1.58328
 Alpha virt. eigenvalues --    1.58615   1.58892   1.59263   1.59532   1.59665
 Alpha virt. eigenvalues --    1.59747   1.59921   1.60418   1.60666   1.60743
 Alpha virt. eigenvalues --    1.61119   1.61464   1.61480   1.61830   1.62073
 Alpha virt. eigenvalues --    1.62102   1.62306   1.62361   1.62614   1.62856
 Alpha virt. eigenvalues --    1.62912   1.63373   1.63470   1.63610   1.63834
 Alpha virt. eigenvalues --    1.64100   1.64309   1.64509   1.64687   1.64785
 Alpha virt. eigenvalues --    1.64982   1.65504   1.65584   1.65924   1.66266
 Alpha virt. eigenvalues --    1.66475   1.66597   1.66777   1.66948   1.67138
 Alpha virt. eigenvalues --    1.67283   1.67722   1.67850   1.68026   1.68149
 Alpha virt. eigenvalues --    1.68346   1.68490   1.68753   1.68950   1.69175
 Alpha virt. eigenvalues --    1.69365   1.69495   1.69652   1.69921   1.70098
 Alpha virt. eigenvalues --    1.70533   1.71021   1.71083   1.71437   1.71681
 Alpha virt. eigenvalues --    1.71874   1.72141   1.72249   1.72590   1.72668
 Alpha virt. eigenvalues --    1.73179   1.73385   1.73531   1.73927   1.73928
 Alpha virt. eigenvalues --    1.74371   1.74598   1.74699   1.75091   1.75290
 Alpha virt. eigenvalues --    1.75517   1.75808   1.76023   1.76303   1.76572
 Alpha virt. eigenvalues --    1.76792   1.76924   1.77160   1.77305   1.77683
 Alpha virt. eigenvalues --    1.77739   1.78175   1.78368   1.78579   1.78691
 Alpha virt. eigenvalues --    1.78993   1.79110   1.79369   1.79649   1.79816
 Alpha virt. eigenvalues --    1.80036   1.80168   1.80339   1.80648   1.80785
 Alpha virt. eigenvalues --    1.81108   1.81666   1.81841   1.82208   1.82372
 Alpha virt. eigenvalues --    1.82716   1.82827   1.82967   1.83408   1.83919
 Alpha virt. eigenvalues --    1.84072   1.84139   1.84467   1.84873   1.85183
 Alpha virt. eigenvalues --    1.85351   1.85527   1.85955   1.86156   1.86475
 Alpha virt. eigenvalues --    1.86669   1.86863   1.87158   1.87193   1.87551
 Alpha virt. eigenvalues --    1.87668   1.87917   1.88469   1.88639   1.89075
 Alpha virt. eigenvalues --    1.89191   1.89534   1.89701   1.90125   1.90644
 Alpha virt. eigenvalues --    1.91002   1.91171   1.91718   1.92070   1.92258
 Alpha virt. eigenvalues --    1.92704   1.92900   1.93315   1.93642   1.93877
 Alpha virt. eigenvalues --    1.94110   1.94238   1.94579   1.94785   1.95092
 Alpha virt. eigenvalues --    1.95250   1.95370   1.95988   1.96154   1.96429
 Alpha virt. eigenvalues --    1.96792   1.96886   1.97208   1.97425   1.97697
 Alpha virt. eigenvalues --    1.98137   1.98354   1.98627   1.98857   1.99070
 Alpha virt. eigenvalues --    1.99399   1.99516   1.99733   2.00232   2.00315
 Alpha virt. eigenvalues --    2.00708   2.00857   2.01198   2.01554   2.01742
 Alpha virt. eigenvalues --    2.02003   2.02393   2.02500   2.02873   2.03293
 Alpha virt. eigenvalues --    2.03527   2.03878   2.04086   2.04313   2.04587
 Alpha virt. eigenvalues --    2.04717   2.05117   2.05335   2.05836   2.05962
 Alpha virt. eigenvalues --    2.06172   2.06610   2.06736   2.06868   2.06946
 Alpha virt. eigenvalues --    2.07093   2.07409   2.07748   2.07783   2.08240
 Alpha virt. eigenvalues --    2.08562   2.08717   2.08845   2.09012   2.09434
 Alpha virt. eigenvalues --    2.09679   2.10052   2.10325   2.10388   2.10822
 Alpha virt. eigenvalues --    2.11160   2.11366   2.11676   2.11886   2.12033
 Alpha virt. eigenvalues --    2.12257   2.12415   2.12485   2.12680   2.12802
 Alpha virt. eigenvalues --    2.13164   2.13468   2.13622   2.13887   2.14083
 Alpha virt. eigenvalues --    2.14815   2.15073   2.15199   2.15454   2.15993
 Alpha virt. eigenvalues --    2.16550   2.16657   2.16917   2.16970   2.17356
 Alpha virt. eigenvalues --    2.17670   2.17877   2.18168   2.18366   2.18691
 Alpha virt. eigenvalues --    2.19218   2.19631   2.19709   2.20018   2.20498
 Alpha virt. eigenvalues --    2.20825   2.20969   2.22121   2.22225   2.22454
 Alpha virt. eigenvalues --    2.22739   2.22820   2.23603   2.23864   2.24106
 Alpha virt. eigenvalues --    2.24203   2.24708   2.24882   2.25236   2.25891
 Alpha virt. eigenvalues --    2.25916   2.26100   2.26270   2.26957   2.27152
 Alpha virt. eigenvalues --    2.27315   2.27675   2.27909   2.28404   2.28623
 Alpha virt. eigenvalues --    2.28779   2.28982   2.29041   2.29361   2.29818
 Alpha virt. eigenvalues --    2.29896   2.30428   2.30933   2.31277   2.31348
 Alpha virt. eigenvalues --    2.31480   2.32048   2.32157   2.32703   2.32769
 Alpha virt. eigenvalues --    2.33039   2.33366   2.33434   2.33600   2.33864
 Alpha virt. eigenvalues --    2.34079   2.34682   2.34764   2.35008   2.35429
 Alpha virt. eigenvalues --    2.35553   2.35856   2.36043   2.36279   2.36567
 Alpha virt. eigenvalues --    2.37154   2.37549   2.37787   2.37886   2.38030
 Alpha virt. eigenvalues --    2.38368   2.38598   2.39119   2.39301   2.39440
 Alpha virt. eigenvalues --    2.39588   2.39828   2.40064   2.40205   2.40440
 Alpha virt. eigenvalues --    2.40637   2.40781   2.41268   2.41610   2.41825
 Alpha virt. eigenvalues --    2.42122   2.42527   2.42780   2.43134   2.43257
 Alpha virt. eigenvalues --    2.43429   2.43890   2.44290   2.44482   2.45005
 Alpha virt. eigenvalues --    2.45253   2.45540   2.45732   2.45840   2.46320
 Alpha virt. eigenvalues --    2.46698   2.47120   2.47591   2.47866   2.48880
 Alpha virt. eigenvalues --    2.49180   2.49768   2.49914   2.50252   2.50473
 Alpha virt. eigenvalues --    2.50925   2.51131   2.51444   2.51994   2.52279
 Alpha virt. eigenvalues --    2.52532   2.53005   2.53250   2.53641   2.54203
 Alpha virt. eigenvalues --    2.54521   2.54902   2.55155   2.55942   2.56219
 Alpha virt. eigenvalues --    2.56356   2.56549   2.56832   2.57268   2.57470
 Alpha virt. eigenvalues --    2.57898   2.58059   2.58527   2.58677   2.58950
 Alpha virt. eigenvalues --    2.59378   2.59585   2.59644   2.59941   2.60061
[...]
 Alpha virt. eigenvalues --    4.53265   4.53760   4.54435   4.54885   4.55417
 Alpha virt. eigenvalues --    4.55559   4.55650   4.56453   4.56880   4.57126
 Alpha virt. eigenvalues --    4.57639   4.57750   4.58301   4.58465   4.58863
 Alpha virt. eigenvalues --    4.59049   4.59936   4.60648   4.60776   4.60835
 Alpha virt. eigenvalues --    4.61175   4.61989   4.62264   4.62804   4.63204
 Alpha virt. eigenvalues --    4.63786   4.64171   4.64244   4.64477   4.64654
 Alpha virt. eigenvalues --    4.65095   4.65273   4.65370   4.65591   4.65782
 Alpha virt. eigenvalues --    4.65844   4.66117   4.66568   4.66674   4.67042
 Alpha virt. eigenvalues --    4.67367   4.68079   4.68422   4.68485   4.68865
 Alpha virt. eigenvalues --    4.69539   4.69616   4.69917   4.69999   4.70179
 Alpha virt. eigenvalues --    4.70805   4.70962   4.71439   4.71523   4.71969
 Alpha virt. eigenvalues --    4.72172   4.72381   4.72645   4.73282   4.74111
 Alpha virt. eigenvalues --    4.74366   4.74739   4.74987   4.75191   4.75477
 Alpha virt. eigenvalues --    4.75882   4.76156   4.76550   4.76605   4.77253
 Alpha virt. eigenvalues --    4.77429   4.77632   4.78045   4.78563   4.78769
 Alpha virt. eigenvalues --    4.79303   4.79396   4.79732   4.79828   4.80261
 Alpha virt. eigenvalues --    4.80604   4.80753   4.81258   4.81594   4.82359
 Alpha virt. eigenvalues --    4.82498   4.82830   4.83560   4.84045   4.84207
 Alpha virt. eigenvalues --    4.84429   4.85060   4.85399   4.86488   4.86683
 Alpha virt. eigenvalues --    4.86986   4.87556   4.87760   4.88683   4.89013
 Alpha virt. eigenvalues --    4.89048   4.89923   4.90056   4.90272   4.91076
 Alpha virt. eigenvalues --    4.91281   4.91782   4.92002   4.92469   4.92783
 Alpha virt. eigenvalues --    4.93135   4.93423   4.93710   4.94272   4.94407
 Alpha virt. eigenvalues --    4.94754   4.95316   4.95590   4.97451   4.98087
 Alpha virt. eigenvalues --    4.98438   4.98748   4.99593   4.99665   4.99910
 Alpha virt. eigenvalues --    5.00309   5.00841   5.01176   5.01681   5.01835
 Alpha virt. eigenvalues --    5.02235   5.02914   5.03180   5.03498   5.04114
 Alpha virt. eigenvalues --    5.04555   5.05354   5.06283   5.06760   5.07563
 Alpha virt. eigenvalues --    5.07670   5.08181   5.08772   5.09092   5.09664
 Alpha virt. eigenvalues --    5.09863   5.10208   5.10324   5.10592   5.11207
 Alpha virt. eigenvalues --    5.11411   5.11779   5.12031   5.12416   5.12684
 Alpha virt. eigenvalues --    5.13013   5.14061   5.14864   5.15173   5.15706
 Alpha virt. eigenvalues --    5.15904   5.16046   5.16405   5.16588   5.17098
 Alpha virt. eigenvalues --    5.17274   5.17474   5.17654   5.18094   5.18301
 Alpha virt. eigenvalues --    5.18601   5.18892   5.19106   5.19406   5.19466
 Alpha virt. eigenvalues --    5.19802   5.20328   5.20560   5.20738   5.21020
 Alpha virt. eigenvalues --    5.21543   5.21690   5.21847   5.22240   5.22571
 Alpha virt. eigenvalues --    5.22760   5.23226   5.23272   5.23552   5.23935
 Alpha virt. eigenvalues --    5.24284   5.24550   5.24934   5.25700   5.26106
 Alpha virt. eigenvalues --    5.26393   5.26803   5.26935   5.27008   5.27530
 Alpha virt. eigenvalues --    5.28161   5.28492   5.28715   5.28940   5.29415
 Alpha virt. eigenvalues --    5.30138   5.30232   5.30422   5.30614   5.30782
 Alpha virt. eigenvalues --    5.31206   5.31363   5.31587   5.31897   5.32718
 Alpha virt. eigenvalues --    5.32953   5.33602   5.34028   5.34281   5.34789
 Alpha virt. eigenvalues --    5.34972   5.35441   5.35495   5.35760   5.36209
 Alpha virt. eigenvalues --    5.36598   5.36971   5.37346   5.37864   5.38113
 Alpha virt. eigenvalues --    5.38496   5.39013   5.39067   5.39637   5.40320
 Alpha virt. eigenvalues --    5.40694   5.41284   5.41989   5.42100   5.42555
 Alpha virt. eigenvalues --    5.43045   5.43603   5.44280   5.44502   5.44976
 Alpha virt. eigenvalues --    5.45410   5.45602   5.45749   5.46621   5.47489
 Alpha virt. eigenvalues --    5.47991   5.48227   5.48527   5.49029   5.49601
 Alpha virt. eigenvalues --    5.50394   5.50552   5.50703   5.51340   5.51680
 Alpha virt. eigenvalues --    5.52185   5.52386   5.52931   5.53939   5.54359
 Alpha virt. eigenvalues --    5.55226   5.55432   5.55878   5.56586   5.57126
 Alpha virt. eigenvalues --    5.57694   5.58179   5.58415   5.58937   5.59486
 Alpha virt. eigenvalues --    5.59789   5.59852   5.60436   5.60957   5.61222
 Alpha virt. eigenvalues --    5.61712   5.61877   5.62439   5.63017   5.63376
 Alpha virt. eigenvalues --    5.63617   5.63994   5.64382   5.64750   5.65144
 Alpha virt. eigenvalues --    5.65778   5.65930   5.66995   5.67461   5.68917
 Alpha virt. eigenvalues --    5.69423   5.69514   5.70291   5.70700   5.71090
 Alpha virt. eigenvalues --    5.71448   5.71704   5.72569   5.73786   5.74516
 Alpha virt. eigenvalues --    5.74836   5.75863   5.76433   5.76585   5.77173
 Alpha virt. eigenvalues --    5.77816   5.79536   5.80013   5.80940   5.81314
 Alpha virt. eigenvalues --    5.81534   5.82352   5.83274   5.83975   5.85121
 Alpha virt. eigenvalues --    5.86744   5.88087   5.88399   5.88816   5.89632
 Alpha virt. eigenvalues --    5.90903   5.95006   5.95263   5.95734   5.98204
 Alpha virt. eigenvalues --    5.99250   5.99517   6.01491   6.01931   6.02619
 Alpha virt. eigenvalues --    6.03035   6.03545   6.04743   6.06149   6.06573
 Alpha virt. eigenvalues --    6.07364   6.07792   6.08445   6.11183   6.12403
 Alpha virt. eigenvalues --    6.14059   6.15162   6.16465   6.16883   6.20228
 Alpha virt. eigenvalues --    6.23573   6.24900   6.26359   6.30857   6.35544
 Alpha virt. eigenvalues --    6.40310   6.42332   6.43961   6.45743   6.46520
 Alpha virt. eigenvalues --    6.47928   6.52177   6.53356   6.56125   6.56949
 Alpha virt. eigenvalues --    6.57246   6.60756   6.61721   6.67469   6.69165
 Alpha virt. eigenvalues --    6.70893   6.74196   6.76497   6.77000   6.77121
 Alpha virt. eigenvalues --    6.78356   6.78643   6.79310   6.82185   6.82469
 Alpha virt. eigenvalues --    6.82664   6.82905   6.83530   6.83760   6.84448
 Alpha virt. eigenvalues --    6.84533   6.84569   6.84786   6.84892   6.85666
 Alpha virt. eigenvalues --    6.85698   6.85861   6.86257   6.86364   6.86575
 Alpha virt. eigenvalues --    6.86696   6.86928   6.87969   6.89005   6.90039
 Alpha virt. eigenvalues --    6.93614   6.94042   6.96772   6.97074   6.97355
 Alpha virt. eigenvalues --    6.97958   6.98529   7.00112   7.01064   7.01630
 Alpha virt. eigenvalues --    7.02626   7.04895   7.05276   7.05648   7.07212
 Alpha virt. eigenvalues --    7.08712   7.09075   7.09465   7.12338   7.13171
 Alpha virt. eigenvalues --    7.13395   7.16785   7.19011   7.23017   7.27931
 Alpha virt. eigenvalues --    7.34345   7.36100   7.36280   7.36365   7.36560
 Alpha virt. eigenvalues --    7.41621   7.43622   7.43840   7.48002   7.48186
 Alpha virt. eigenvalues --    7.48595   7.53537   7.57324   7.58642   7.58975
 Alpha virt. eigenvalues --    7.62423   7.62723   7.67080   7.85036   7.87264
 Alpha virt. eigenvalues --    7.95310   8.03986   8.26659   8.28786   8.29980
 Alpha virt. eigenvalues --    8.30171   8.31084   8.33082   8.44453   8.44980
 Alpha virt. eigenvalues --    8.45518   8.49182   8.49686   8.57586   8.58116
 Alpha virt. eigenvalues --    8.61085   8.67175   8.67351   8.75103   8.75109
 Alpha virt. eigenvalues --    8.78413   8.78647   8.80068   8.88791   8.89021
 Alpha virt. eigenvalues --    8.94685   8.94999   8.98079   8.99002   8.99991
 Alpha virt. eigenvalues --    9.03438   9.06394   9.09492   9.10673   9.10959
 Alpha virt. eigenvalues --    9.16711   9.17002   9.53134   9.56778   9.73204
 Alpha virt. eigenvalues --    9.78785  10.15615  10.20524  22.55814  22.62113
 Alpha virt. eigenvalues --   22.65539  22.69081  22.74875  22.82153  22.85002
 Alpha virt. eigenvalues --   22.86518  22.88415  22.88455  22.94163  22.96079
 Alpha virt. eigenvalues --   23.00822  23.02588  23.05328  23.06191  23.07522
 Alpha virt. eigenvalues --   23.08243  23.08813  23.09907  23.12103  23.12768
 Alpha virt. eigenvalues --   23.13194  23.16067  23.16872  23.17588  23.18450
 Alpha virt. eigenvalues --   23.20008  23.20934  23.21248  23.21629  23.22373
 Alpha virt. eigenvalues --   23.24606  23.25369  23.26325  23.26649  23.28866
 Alpha virt. eigenvalues --   23.30203  23.30269  23.31249  23.32740  23.34897
 Alpha virt. eigenvalues --   23.38597  23.41317  23.43712  23.44133  23.45281
 Alpha virt. eigenvalues --   23.51918  23.55161  23.59675  23.62326  23.67975
 Alpha virt. eigenvalues --   23.80602  23.81638  23.89362  24.11325  24.12437
 Alpha virt. eigenvalues --   24.16040  24.22564  24.28469  24.33988  24.45896
 Alpha virt. eigenvalues --   32.68841  32.90398  33.29727  34.64712  34.70456
 Alpha virt. eigenvalues --   34.97716  42.96387  43.93917  44.04691  44.15989
 Alpha virt. eigenvalues --   44.24676  44.31450  57.10101  57.17516  57.22982
 Alpha virt. eigenvalues --   57.24746  57.49540  57.51253  57.60711 117.86840
          Condensed to atoms (all electrons):
 Mulliken charges:
               1
     1  C    0.106583
     2  C    0.235463
     3  C   -0.112385
     4  C   -0.153886
     5  C    0.184882
     6  N   -0.264991
     7  H    0.127989
     8  C   -0.208084
     9  C    0.105504
    10  C   -0.201916
    11  C   -0.193651
    12  C   -0.111524
    13  H    0.154396
    14  H    0.158674
    15  H    0.151763
    16  C    0.386957
    17  C    0.087201
    18  C   -0.230421
    19  C   -0.215679
    20  C   -0.159534
    21  H    0.144344
    22  C   -0.142515
    23  H    0.151853
    24  C   -0.175397
    25  H    0.150333
    26  H    0.152696
    27  H    0.152614
    28  F   -0.218399
    29  C   -0.246318
    30  H    0.119456
    31  H    0.114250
    32  H    0.090411
    33  C   -0.022362
    34  C   -0.060186
    35  C   -0.032962
    36  H    0.139378
    37  H    0.096310
    38  C    0.015529
    39  H    0.106381
    40  H    0.104779
    41  H    0.104836
    42  H    0.104952
    43  H    0.073623
    44  H    0.103841
    45  N    0.006096
    46  O   -0.340596
    47  I   -0.026231
    48  H    0.149497
    49  C   -0.127202
    50  C   -0.196302
    51  C   -0.055042
    52  C   -0.055112
    53  C   -0.126406
    54  C   -0.140777
    55  H    0.155291
    56  H    0.162132
    57  C    0.114196
    58  C   -0.080710
    59  H    0.148109
    60  H    0.154478
    61  C   -0.060270
    62  C   -0.060334
    63  H    0.147564
    64  C    0.059978
    65  C   -0.102276
    66  C   -0.059027
    67  C   -0.156905
    68  C   -0.039660
    69  C   -0.188702
    70  C   -0.100063
    71  C   -0.145889
    72  C   -0.136561
    73  H    0.160766
    74  H    0.149490
    75  C   -0.135594
    76  H    0.147068
    77  H    0.156257
    78  H    0.154533
    79  S    0.838501
    80  O   -0.488074
    81  O   -0.516715
    82  S    0.882895
    83  O   -0.472970
    84  O   -0.535783
    85  N   -0.379939
    86  C    0.078841
    87  C    0.134445
    88  C    0.082008
    89  C    0.336454
    90  C   -0.132044
    91  C   -0.168315
    92  C   -0.204700
    93  C   -0.091188
    94  C   -0.162796
    95  H    0.188366
    96  C   -0.135407
    97  H    0.161516
    98  H    0.168911
    99  H    0.161871
   100  C   -0.068879
   101  C   -0.156363
   102  C   -0.190656
   103  C   -0.101653
   104  C   -0.129127
   105  H    0.172374
   106  C   -0.139769
   107  H    0.160409
   108  H    0.158757
   109  H    0.159158
   110  C    0.567858
   111  F   -0.192953
   112  F   -0.191562
   113  F   -0.185772
   114  C    0.545992
   115  F   -0.183626
   116  F   -0.193147
   117  F   -0.183505
 Sum of Mulliken charges =   0.00000
 Mulliken charges with hydrogens summed into heavy atoms:
               1
     1  C    0.106583
     2  C    0.384960
     3  C   -0.112385
     4  C   -0.025897
     5  C    0.184882
     6  N   -0.264991
     8  C   -0.208084
     9  C    0.105504
    10  C   -0.047521
    11  C   -0.041888
    12  C    0.047150
    16  C    0.386957
    17  C    0.087201
    18  C   -0.086077
    19  C   -0.063826
    20  C   -0.009200
    22  C    0.010181
    24  C   -0.022783
    28  F   -0.218399
    29  C    0.077800
    33  C    0.213326
    34  C    0.150975
    35  C    0.176826
    38  C    0.192993
    45  N    0.006096
    46  O   -0.340596
    47  I   -0.026231
    49  C    0.028089
    50  C   -0.034170
    51  C   -0.055042
    52  C   -0.055112
    53  C    0.021703
    54  C    0.013701
    57  C    0.114196
    58  C    0.066854
    61  C   -0.060270
    62  C   -0.060334
    64  C    0.059978
    65  C   -0.102276
    66  C   -0.059027
    67  C   -0.156905
    68  C   -0.039660
    69  C   -0.027935
    70  C    0.049427
    71  C    0.001179
    72  C    0.019696
    75  C    0.018938
    79  S    0.838501
    80  O   -0.488074
    81  O   -0.516715
    82  S    0.882895
    83  O   -0.472970
    84  O   -0.535783
    85  N   -0.379939
    86  C    0.078841
    87  C    0.134445
    88  C    0.082008
    89  C    0.336454
    90  C   -0.132044
    91  C   -0.168315
    92  C   -0.016333
    93  C    0.070329
    94  C    0.006115
    96  C    0.026464
   100  C   -0.068879
   101  C   -0.156363
   102  C   -0.018282
   103  C    0.058756
   104  C    0.029630
   106  C    0.019388
   110  C    0.567858
   111  F   -0.192953
   112  F   -0.191562
   113  F   -0.185772
   114  C    0.545992
   115  F   -0.183626
   116  F   -0.193147
   117  F   -0.183505
 Electronic spatial extent (au):  <R**2>=          69245.0285
 Charge=              0.0000 electrons
 Dipole moment (field-independent basis, Debye):
    X=             -9.3212    Y=             -2.7341    Z=              4.7978  Tot=             10.8342
 Quadrupole moment (field-independent basis, Debye-Ang):
   XX=           -451.1312   YY=           -426.7466   ZZ=           -448.2018
   XY=             14.7228   XZ=              1.9547   YZ=             12.4315
 Traceless Quadrupole moment (field-independent basis, Debye-Ang):
   XX=             -9.1047   YY=             15.2799   ZZ=             -6.1753
   XY=             14.7228   XZ=              1.9547   YZ=             12.4315
 Octapole moment (field-independent basis, Debye-Ang**2):
  XXX=           -137.6628  YYY=            -37.2096  ZZZ=             32.6094  XYY=            270.9640
  XXY=           -323.1888  XXZ=            -82.0972  XZZ=           -124.4498  YZZ=            -84.8988
  YYZ=             64.2705  XYZ=           -103.1939
 Hexadecapole moment (field-independent basis, Debye-Ang**3):
 XXXX=         -55225.7889 YYYY=         -24715.6597 ZZZZ=          -9365.1021 XXXY=          -1060.7014
 XXXZ=            967.8642 YYYX=           -807.1842 YYYZ=            -77.4428 ZZZX=            -73.1391
 ZZZY=            262.0160 XXYY=         -12430.5981 XXZZ=         -10721.9314 YYZZ=          -5320.1471
 XXYZ=           -314.1026 YYXZ=           -252.2166 ZZXY=            157.7774
 N-N= 1.539547474948D+04 E-N=-4.161830136717D+04  KE= 4.441806982317D+03
 Leave Link  601 at Tue Jun 11 19:29:03 2024, MaxMem=  8589934592 cpu:              30.8 elap:               1.6
 (Enter /opt/packages/gaussian/g16RevC.01/g16/l9999.exe)
 Unable to Open any file for archive entry.
 1\1\GINC-R046\SP\RB3LYP\def2TZVPP\C60H39F7I1N3O5S2\BIM2\11-Jun-2024\0\
 \#p b3lyp def2tzvpp scf=maxcycle=128 nosymm scrf=(smd,solvent=propylet
 hanoate) empiricaldispersion=gd3bj\\Title Card Required\\0,1\C,0,-1.71
 7341,-2.021134,0.095143\C,0,-0.485185,-2.132917,0.874472\C,0,-0.559396
 ,-1.604636,2.238217\C,0,-1.596553,-0.783584,2.569144\C,0,-2.69485,-0.6
 23678,1.660885\N,0,-2.717633,-1.280724,0.470156\H,0,-1.61518,-0.335619
 ,3.559273\C,0,-1.904757,-2.700139,-1.220215\C,0,-3.128881,-3.336425,-1
 .532986\C,0,-3.345785,-3.80136,-2.835156\C,0,-1.150777,-3.068332,-3.51
 8553\C,0,-2.374525,-3.654327,-3.824054\H,0,-4.28322,-4.311053,-3.06351
 1\H,0,-2.563039,-4.019632,-4.834544\H,0,-0.35612,-2.949688,-4.25536\C,
 0,-0.934237,-2.61906,-2.22394\C,0,-4.168259,-3.599368,-0.498498\C,0,-5
 .517713,-3.32966,-0.757561\C,0,-3.818089,-4.175383,0.731798\C,0,-6.494
 638,-3.615529,0.19732\H,0,-5.802811,-2.876973,-1.709331\C,0,-4.793222,
 -4.464996,1.682759\H,0,-2.768917,-4.408308,0.93618\C,0,-6.136166,-4.18
 4735,1.418732\H,0,-7.541268,-3.391231,-0.016785\H,0,-4.504707,-4.92038
 8,2.631763\H,0,-6.900534,-4.410954,2.164237\F,0,0.25271,-2.084522,-1.9
 43032\C,0,0.511755,-1.902492,3.235893\H,0,0.382496,-2.933004,3.604232\
 H,0,1.508335,-1.844622,2.778005\H,0,0.458379,-1.209257,4.083371\C,0,-5
 .014929,0.0323,1.194702\C,0,-3.904264,0.963963,3.127367\C,0,-6.09564,-
 0.490333,2.134931\H,0,-4.886061,-0.628452,0.331421\H,0,-5.279373,1.043
 067,0.853412\C,0,-5.030774,0.416633,3.997688\H,0,-2.967786,1.04165,3.6
 8579\H,0,-4.176744,1.971197,2.773672\H,0,-5.847108,-1.52623,2.435431\H
 ,0,-7.063772,-0.499391,1.616382\H,0,-4.739518,-0.579278,4.384756\H,0,-
 5.204181,1.086806,4.84985\N,0,-3.760459,0.12063,1.945215\O,0,-6.22865,
 0.332623,3.269734\I,0,0.619161,-3.935192,0.639345\H,0,0.258317,-1.2255
 25,0.340263\C,0,3.223607,5.955118,-1.946105\C,0,2.539934,5.013867,-1.2
 14254\C,0,3.169935,3.797534,-0.826119\C,0,4.513013,3.568858,-1.241985\
 C,0,5.199407,4.566527,-1.989088\C,0,4.570163,5.737163,-2.329889\H,0,2.
 721592,6.878286,-2.239566\H,0,1.501036,5.197151,-0.941034\C,0,2.500473
 ,2.786918,-0.057062\C,0,5.141487,2.342596,-0.927412\H,0,6.230916,4.374
 25,-2.290205\H,0,5.098807,6.497964,-2.906206\C,0,4.479152,1.343697,-0.
 23764\C,0,3.139602,1.589581,0.204213\H,0,6.169145,2.17046,-1.252388\C,
 0,1.096564,3.073999,0.3908\C,0,0.008531,2.404299,-0.137656\C,0,0.89422
 5,4.101767,1.37159\C,0,-1.331805,2.819016,0.167544\C,0,-0.434735,4.486
 41,1.707273\C,0,1.975957,4.736684,2.042537\C,0,-1.524385,3.852122,1.06
 5368\C,0,-0.647221,5.508988,2.673087\C,0,1.740952,5.712207,2.982244\H,
 0,2.999743,4.434812,1.819383\H,0,-2.540192,4.189791,1.278853\C,0,0.417
 778,6.110464,3.296138\H,0,-1.672937,5.798699,2.909585\H,0,2.581748,6.1
 82753,3.494039\H,0,0.250121,6.891813,4.039012\S,0,2.175682,0.336086,1.
 019514\O,0,1.586239,0.944199,2.173982\O,0,2.960564,-0.836112,1.243232\
 S,0,0.347462,0.939857,-1.115366\O,0,1.232605,1.329843,-2.163602\O,0,-0
 .882091,0.310566,-1.478655\N,0,1.05483,-0.055957,-0.068362\C,0,5.20579
 5,0.129455,-0.011397\C,0,5.929176,-0.837118,0.105873\C,0,-2.482367,2.2
 71205,-0.487349\C,0,-3.454117,1.86033,-1.086176\C,0,-4.485298,1.241911
 ,-1.863581\C,0,-5.767852,1.804496,-2.014283\C,0,-4.195005,0.021726,-2.
 495837\C,0,-6.737828,1.154989,-2.772375\C,0,-5.167835,-0.614881,-3.262
 569\H,0,-3.196708,-0.404303,-2.370154\C,0,-6.438834,-0.056292,-3.39664
 9\H,0,-7.726466,1.600985,-2.881554\H,0,-4.926974,-1.556857,-3.758731\H
 ,0,-7.200554,-0.558028,-3.99475\C,0,6.741387,-2.006113,0.261086\C,0,8.
 087935,-2.030792,-0.156476\C,0,6.190281,-3.160123,0.838495\C,0,8.85538
 1,-3.180306,0.002389\C,0,6.963601,-4.307066,0.994424\H,0,5.147868,-3.1
 37847,1.15824\C,0,8.293988,-4.320377,0.578163\H,0,9.894919,-3.18432,-0
 .325488\H,0,6.52172,-5.197382,1.4443\H,0,8.899862,-5.219075,0.699706\C
 ,0,8.693883,-0.797458,-0.775466\F,0,8.669608,0.245746,0.061367\F,0,8.0
 4144,-0.41731,-1.879277\F,0,9.96825,-0.988911,-1.122273\C,0,-6.074823,
 3.132163,-1.372373\F,0,-5.278942,4.101815,-1.830078\F,0,-5.908396,3.10
 1675,-0.040988\F,0,-7.332274,3.516061,-1.594077\\Version=ES64L-G16RevC
 .01\HF=-4644.9998896\RMSD=1.780e-09\Dipole=-3.6672384,-1.0756847,1.887
 6122\Quadrupole=-6.7691173,11.3602648,-4.5911475,10.9460547,1.4532888,
 9.2425287\PG=C01 [X(C60H39F7I1N3O5S2)]\\@
 The archive entry for this job was punched.


 Once you get people laughing, they're
 listening and you can tell them almost anything.
                                 -- Herb Gardner
 Job cpu time:       1 days 23 hours 45 minutes 24.9 seconds.
 Elapsed time:       0 days  1 hours 30 minutes 24.6 seconds.
 File lengths (MBytes):  RWF=   5935 Int=      0 D2E=      0 Chk=    522 Scr=      1
 Normal termination of Gaussian 16 at Tue Jun 11 19:29:04 2024.
