 Entering Gaussian System, Link 0=g16
 Initial command:
 /ihome/crc/install/gaussian/c01/avx2/tar/g16/l1.exe "/scratch/slurm-18111383/Gau-56856.inp" -scrdir="/scratch/slurm-18111383/"
 Entering Link 1 = /ihome/crc/install/gaussian/c01/avx2/tar/g16/l1.exe PID=     56857.
  
 Copyright (c) 1988-2019, Gaussian, Inc.  All Rights Reserved.
  
 This is part of the Gaussian(R) 16 program.  It is based on
 the Gaussian(R) 09 system (copyright 2009, Gaussian, Inc.),
 the Gaussian(R) 03 system (copyright 2003, Gaussian, Inc.),
 the Gaussian(R) 98 system (copyright 1998, Gaussian, Inc.),
 the Gaussian(R) 94 system (copyright 1995, Gaussian, Inc.),
 the Gaussian 92(TM) system (copyright 1992, Gaussian, Inc.),
 the Gaussian 90(TM) system (copyright 1990, Gaussian, Inc.),
 the Gaussian 88(TM) system (copyright 1988, Gaussian, Inc.),
 the Gaussian 86(TM) system (copyright 1986, Carnegie Mellon
 University), and the Gaussian 82(TM) system (copyright 1983,
 Carnegie Mellon University). Gaussian is a federally registered
 trademark of Gaussian, Inc.
  
 This software contains proprietary and confidential information,
 including trade secrets, belonging to Gaussian, Inc.
  
 This software is provided under written license and may be
 used, copied, transmitted, or stored only in accord with that
 written license.
  
 The following legend is applicable only to US Government
 contracts under FAR:
  
                    RESTRICTED RIGHTS LEGEND
  
 Use, reproduction and disclosure by the US Government is
 subject to restrictions as set forth in subparagraphs (a)
 and (c) of the Commercial Computer Software - Restricted
 Rights clause in FAR 52.227-19.
  
 Gaussian, Inc.
 340 Quinnipiac St., Bldg. 40, Wallingford CT 06492
  
  
 ---------------------------------------------------------------
 Warning -- This program may not be used in any manner that
 competes with the business of Gaussian, Inc. or will provide
 assistance to any competitor of Gaussian, Inc.  The licensee
 of this program is prohibited from giving any competitor of
 Gaussian, Inc. access to this program.  By using this program,
 the user acknowledges that Gaussian, Inc. is engaged in the
 business of creating and licensing software in the field of
 computational chemistry and represents and warrants to the
 licensee that it is not a competitor of Gaussian, Inc. and that
 it will not use this program in any manner prohibited above.
 ---------------------------------------------------------------
  

 Cite this work as:
 Gaussian 16, Revision C.01,
 M. J. Frisch, G. W. Trucks, H. B. Schlegel, G. E. Scuseria, 
 M. A. Robb, J. R. Cheeseman, G. Scalmani, V. Barone, 
 G. A. Petersson, H. Nakatsuji, X. Li, M. Caricato, A. V. Marenich, 
 J. Bloino, B. G. Janesko, R. Gomperts, B. Mennucci, H. P. Hratchian, 
 J. V. Ortiz, A. F. Izmaylov, J. L. Sonnenberg, D. Williams-Young, 
 F. Ding, F. Lipparini, F. Egidi, J. Goings, B. Peng, A. Petrone, 
 T. Henderson, D. Ranasinghe, V. G. Zakrzewski, J. Gao, N. Rega, 
 G. Zheng, W. Liang, M. Hada, M. Ehara, K. Toyota, R. Fukuda, 
 J. Hasegawa, M. Ishida, T. Nakajima, Y. Honda, O. Kitao, H. Nakai, 
 T. Vreven, K. Throssell, J. A. Montgomery, Jr., J. E. Peralta, 
 F. Ogliaro, M. J. Bearpark, J. J. Heyd, E. N. Brothers, K. N. Kudin, 
 V. N. Staroverov, T. A. Keith, R. Kobayashi, J. Normand, 
 K. Raghavachari, A. P. Rendell, J. C. Burant, S. S. Iyengar, 
 J. Tomasi, M. Cossi, J. M. Millam, M. Klene, C. Adamo, R. Cammi, 
 J. W. Ochterski, R. L. Martin, K. Morokuma, O. Farkas, 
 J. B. Foresman, and D. J. Fox, Gaussian, Inc., Wallingford CT, 2019.
 
 ******************************************
 Gaussian 16:  ES64L-G16RevC.01  3-Jul-2019
                27-Feb-2025 
 ******************************************
 %nprocshared=32
 Will use up to   32 processors via shared memory.
 %mem=48GB
 ----------------------------------------------------------------------
 #p b3lyp def2tzvpp scf=maxcycle=128 nosymm scrf=(smd,solvent=propyleth
 anoate) empiricaldispersion=gd3bj
 ----------------------------------------------------------------------
 1/38=1,172=1/1;
 2/12=2,15=1,17=6,18=5,40=1/2;
 3/5=44,7=202,11=2,25=1,30=1,70=32201,72=169,74=-5,124=41/1,2,3;
 4//1;
 5/5=2,7=128,38=5,53=169/2;
 6/7=2,8=2,9=2,10=2,28=1/1;
 99/5=1,9=1/99;
 Leave Link    1 at Thu Feb 27 09:50:02 2025, MaxMem=  6442450944 cpu:               0.6 elap:               0.0
 (Enter /ihome/crc/install/gaussian/c01/avx2/tar/g16/l101.exe)
 ------------
 NIH_htrans_2
 ------------
 Symbolic Z-matrix:
 Charge =  0 Multiplicity = 1
 N                    -1.23012  -7.02726  -5.05589 
 C                    -0.21063  -7.41624  -4.32136 
 C                    -0.58148  -8.22105  -3.09016 
 C                    -2.10219  -8.20906  -3.14909 
 C                    -2.40394  -7.46187  -4.4576 
 O                    -3.51483  -7.27172  -4.89536 
 O                     1.00174  -7.1479   -4.58546 
 H                    -0.13304  -9.22236  -3.16431 
 H                    -0.15246  -7.73227  -2.20333 
 H                    -2.56654  -7.65555  -2.3203 
 H                    -2.56564  -9.20426  -3.18283 
 C                     0.86334  -4.02538  -5.11691 
 C                     0.8454   -2.72307  -5.56028 
 C                     0.98507  -2.47399  -6.94042 
 C                     1.14477  -3.5469   -7.79474 
 C                     1.18191  -4.87752  -7.29468 
 N                     1.04754  -5.06955  -5.96258 
 H                     1.20728  -3.36009  -8.86321 
 C                     0.66561  -4.33751  -3.67152 
 C                    -0.51787  -4.01184  -2.97849 
 C                    -0.59853  -4.29822  -1.60656 
 C                     1.63843  -5.21496  -1.60669 
 C                     0.46319  -4.89292  -0.92991 
 H                    -1.52068  -4.06235  -1.07325 
 H                     0.3753   -5.11218   0.13528 
 H                     2.49234  -5.67887  -1.11252 
 C                     1.71046  -4.93041  -2.96031 
 C                    -1.6773   -3.36268  -3.65446 
 C                    -2.2731   -2.23404  -3.07464 
 C                    -2.19961  -3.86635  -4.85507 
 C                    -3.36067  -1.61224  -3.68744 
 H                    -1.86881  -1.83063  -2.14358 
 C                    -3.2921   -3.24786  -5.45967 
 H                    -1.76815  -4.76869  -5.29586 
 C                    -3.87269  -2.1174   -4.88239 
 H                    -3.8082   -0.72882  -3.22849 
 H                    -3.69819  -3.66258  -6.38399 
 H                    -4.72699  -1.63454  -5.36024 
 F                     2.83547  -5.21426  -3.62057 
 C                     0.92098  -1.0672   -7.4548 
 H                    -0.0623   -0.62953  -7.22567 
 H                     1.6777   -0.44461  -6.95558 
 H                     1.08389  -1.02333  -8.5386 
 C                     0.87876  -7.29465  -7.77819 
 C                     1.4724   -5.81312  -9.55892 
 C                    -0.45989  -7.52981  -8.46816 
 H                     0.78276  -7.43714  -6.70169 
 H                     1.62144  -8.01559  -8.15312 
 C                     0.11739  -6.07401  -10.20666 
 H                     1.88475  -4.84124  -9.84381 
 H                     2.18222  -6.58239  -9.90014 
 H                    -1.21199  -6.83838  -8.04285 
 H                    -0.80182  -8.55875  -8.29143 
 H                    -0.60198  -5.29648  -9.88179 
 H                     0.19969  -6.03595  -11.30159 
 N                     1.35446  -5.95045  -8.11014 
 O                    -0.35402  -7.35459  -9.86387 
 H                     0.69403  -1.90956  -4.85068 
 H                     1.05472  -6.14801  -5.38468 
 
 ITRead=  0  0  0  0  0  0  0  0  0  0  0  0  0  0  0  0  0  0  0  0
 ITRead=  0  0  0  0  0  0  0  0  0  0  0  0  0  0  0  0  0  0  0  0
 ITRead=  0  0  0  0  0  0  0  0  0  0  0  0  0  0  0  0  0  0  0
 MicOpt= -1 -1 -1 -1 -1 -1 -1 -1 -1 -1 -1 -1 -1 -1 -1 -1 -1 -1 -1 -1
 MicOpt= -1 -1 -1 -1 -1 -1 -1 -1 -1 -1 -1 -1 -1 -1 -1 -1 -1 -1 -1 -1
 MicOpt= -1 -1 -1 -1 -1 -1 -1 -1 -1 -1 -1 -1 -1 -1 -1 -1 -1 -1 -1
 NAtoms=     59 NQM=       59 NQMF=       0 NMMI=      0 NMMIF=      0
                NMic=       0 NMicF=      0.
                    Isotopes and Nuclear Properties:
 (Nuclear quadrupole moments (NQMom) in fm**2, nuclear magnetic moments (NMagM)
  in nuclear magnetons)

  Atom         1           2           3           4           5           6           7           8           9          10
 IAtWgt=          14          12          12          12          12          16          16           1           1           1
 AtmWgt=  14.0030740  12.0000000  12.0000000  12.0000000  12.0000000  15.9949146  15.9949146   1.0078250   1.0078250   1.0078250
 NucSpn=           2           0           0           0           0           0           0           1           1           1
 AtZEff=  -0.0000000  -0.0000000  -0.0000000  -0.0000000  -0.0000000  -0.0000000  -0.0000000  -0.0000000  -0.0000000  -0.0000000
 NQMom=    2.0440000   0.0000000   0.0000000   0.0000000   0.0000000   0.0000000   0.0000000   0.0000000   0.0000000   0.0000000
 NMagM=    0.4037610   0.0000000   0.0000000   0.0000000   0.0000000   0.0000000   0.0000000   2.7928460   2.7928460   2.7928460
 AtZNuc=   7.0000000   6.0000000   6.0000000   6.0000000   6.0000000   8.0000000   8.0000000   1.0000000   1.0000000   1.0000000

  Atom        11          12          13          14          15          16          17          18          19          20
 IAtWgt=           1          12          12          12          12          12          14           1          12          12
 AtmWgt=   1.0078250  12.0000000  12.0000000  12.0000000  12.0000000  12.0000000  14.0030740   1.0078250  12.0000000  12.0000000
 NucSpn=           1           0           0           0           0           0           2           1           0           0
 AtZEff=  -0.0000000  -0.0000000  -0.0000000  -0.0000000  -0.0000000  -0.0000000  -0.0000000  -0.0000000  -0.0000000  -0.0000000
 NQMom=    0.0000000   0.0000000   0.0000000   0.0000000   0.0000000   0.0000000   2.0440000   0.0000000   0.0000000   0.0000000
 NMagM=    2.7928460   0.0000000   0.0000000   0.0000000   0.0000000   0.0000000   0.4037610   2.7928460   0.0000000   0.0000000
 AtZNuc=   1.0000000   6.0000000   6.0000000   6.0000000   6.0000000   6.0000000   7.0000000   1.0000000   6.0000000   6.0000000

  Atom        21          22          23          24          25          26          27          28          29          30
 IAtWgt=          12          12          12           1           1           1          12          12          12          12
 AtmWgt=  12.0000000  12.0000000  12.0000000   1.0078250   1.0078250   1.0078250  12.0000000  12.0000000  12.0000000  12.0000000
 NucSpn=           0           0           0           1           1           1           0           0           0           0
 AtZEff=  -0.0000000  -0.0000000  -0.0000000  -0.0000000  -0.0000000  -0.0000000  -0.0000000  -0.0000000  -0.0000000  -0.0000000
 NQMom=    0.0000000   0.0000000   0.0000000   0.0000000   0.0000000   0.0000000   0.0000000   0.0000000   0.0000000   0.0000000
 NMagM=    0.0000000   0.0000000   0.0000000   2.7928460   2.7928460   2.7928460   0.0000000   0.0000000   0.0000000   0.0000000
 AtZNuc=   6.0000000   6.0000000   6.0000000   1.0000000   1.0000000   1.0000000   6.0000000   6.0000000   6.0000000   6.0000000

  Atom        31          32          33          34          35          36          37          38          39          40
 IAtWgt=          12           1          12           1          12           1           1           1          19          12
 AtmWgt=  12.0000000   1.0078250  12.0000000   1.0078250  12.0000000   1.0078250   1.0078250   1.0078250  18.9984032  12.0000000
 NucSpn=           0           1           0           1           0           1           1           1           1           0
 AtZEff=  -0.0000000  -0.0000000  -0.0000000  -0.0000000  -0.0000000  -0.0000000  -0.0000000  -0.0000000  -0.0000000  -0.0000000
 NQMom=    0.0000000   0.0000000   0.0000000   0.0000000   0.0000000   0.0000000   0.0000000   0.0000000   0.0000000   0.0000000
 NMagM=    0.0000000   2.7928460   0.0000000   2.7928460   0.0000000   2.7928460   2.7928460   2.7928460   2.6288670   0.0000000
 AtZNuc=   6.0000000   1.0000000   6.0000000   1.0000000   6.0000000   1.0000000   1.0000000   1.0000000   9.0000000   6.0000000

  Atom        41          42          43          44          45          46          47          48          49          50
 IAtWgt=           1           1           1          12          12          12           1           1          12           1
 AtmWgt=   1.0078250   1.0078250   1.0078250  12.0000000  12.0000000  12.0000000   1.0078250   1.0078250  12.0000000   1.0078250
 NucSpn=           1           1           1           0           0           0           1           1           0           1
 AtZEff=  -0.0000000  -0.0000000  -0.0000000  -0.0000000  -0.0000000  -0.0000000  -0.0000000  -0.0000000  -0.0000000  -0.0000000
 NQMom=    0.0000000   0.0000000   0.0000000   0.0000000   0.0000000   0.0000000   0.0000000   0.0000000   0.0000000   0.0000000
 NMagM=    2.7928460   2.7928460   2.7928460   0.0000000   0.0000000   0.0000000   2.7928460   2.7928460   0.0000000   2.7928460
 AtZNuc=   1.0000000   1.0000000   1.0000000   6.0000000   6.0000000   6.0000000   1.0000000   1.0000000   6.0000000   1.0000000

  Atom        51          52          53          54          55          56          57          58          59
 IAtWgt=           1           1           1           1           1          14          16           1           1
 AtmWgt=   1.0078250   1.0078250   1.0078250   1.0078250   1.0078250  14.0030740  15.9949146   1.0078250   1.0078250
 NucSpn=           1           1           1           1           1           2           0           1           1
 AtZEff=  -0.0000000  -0.0000000  -0.0000000  -0.0000000  -0.0000000  -0.0000000  -0.0000000  -0.0000000  -0.0000000
 NQMom=    0.0000000   0.0000000   0.0000000   0.0000000   0.0000000   2.0440000   0.0000000   0.0000000   0.0000000
 NMagM=    2.7928460   2.7928460   2.7928460   2.7928460   2.7928460   0.4037610   0.0000000   2.7928460   2.7928460
 AtZNuc=   1.0000000   1.0000000   1.0000000   1.0000000   1.0000000   7.0000000   8.0000000   1.0000000   1.0000000
 Leave Link  101 at Thu Feb 27 09:50:02 2025, MaxMem=  6442450944 cpu:               0.6 elap:               0.0
 (Enter /ihome/crc/install/gaussian/c01/avx2/tar/g16/l202.exe)
 Symmetry turned off by external request.
 Stoichiometry    C26H26FN3O3
 Framework group  C1[X(C26H26FN3O3)]
 Deg. of freedom   171
 Full point group                 C1      NOp   1
                          Input orientation:                          
 ---------------------------------------------------------------------
 Center     Atomic      Atomic             Coordinates (Angstroms)
 Number     Number       Type             X           Y           Z
 ---------------------------------------------------------------------
      1          7           0       -1.230120   -7.027259   -5.055892
      2          6           0       -0.210633   -7.416242   -4.321363
      3          6           0       -0.581478   -8.221053   -3.090159
      4          6           0       -2.102194   -8.209057   -3.149092
      5          6           0       -2.403943   -7.461869   -4.457598
      6          8           0       -3.514826   -7.271718   -4.895364
      7          8           0        1.001737   -7.147895   -4.585458
      8          1           0       -0.133041   -9.222357   -3.164314
      9          1           0       -0.152461   -7.732274   -2.203332
     10          1           0       -2.566535   -7.655549   -2.320295
     11          1           0       -2.565642   -9.204259   -3.182834
     12          6           0        0.863339   -4.025384   -5.116911
     13          6           0        0.845404   -2.723070   -5.560284
     14          6           0        0.985074   -2.473988   -6.940420
     15          6           0        1.144773   -3.546896   -7.794743
     16          6           0        1.181910   -4.877523   -7.294680
     17          7           0        1.047537   -5.069551   -5.962580
     18          1           0        1.207277   -3.360085   -8.863209
     19          6           0        0.665605   -4.337512   -3.671517
     20          6           0       -0.517874   -4.011836   -2.978492
     21          6           0       -0.598527   -4.298222   -1.606562
     22          6           0        1.638429   -5.214956   -1.606686
     23          6           0        0.463186   -4.892918   -0.929907
     24          1           0       -1.520681   -4.062346   -1.073247
     25          1           0        0.375296   -5.112180    0.135279
     26          1           0        2.492336   -5.678874   -1.112517
     27          6           0        1.710461   -4.930405   -2.960305
     28          6           0       -1.677295   -3.362684   -3.654458
     29          6           0       -2.273100   -2.234038   -3.074640
     30          6           0       -2.199612   -3.866353   -4.855065
     31          6           0       -3.360672   -1.612243   -3.687437
     32          1           0       -1.868805   -1.830628   -2.143579
     33          6           0       -3.292099   -3.247862   -5.459674
     34          1           0       -1.768154   -4.768691   -5.295856
     35          6           0       -3.872686   -2.117404   -4.882387
     36          1           0       -3.808201   -0.728818   -3.228492
     37          1           0       -3.698193   -3.662578   -6.383986
     38          1           0       -4.726988   -1.634537   -5.360235
     39          9           0        2.835473   -5.214264   -3.620568
     40          6           0        0.920978   -1.067200   -7.454797
     41          1           0       -0.062303   -0.629530   -7.225671
     42          1           0        1.677700   -0.444613   -6.955583
     43          1           0        1.083890   -1.023326   -8.538599
     44          6           0        0.878756   -7.294647   -7.778185
     45          6           0        1.472398   -5.813122   -9.558917
     46          6           0       -0.459892   -7.529810   -8.468164
     47          1           0        0.782759   -7.437139   -6.701686
     48          1           0        1.621442   -8.015595   -8.153121
     49          6           0        0.117394   -6.074013  -10.206661
     50          1           0        1.884746   -4.841238   -9.843806
     51          1           0        2.182222   -6.582386   -9.900136
     52          1           0       -1.211986   -6.838382   -8.042852
     53          1           0       -0.801821   -8.558749   -8.291429
     54          1           0       -0.601977   -5.296484   -9.881788
     55          1           0        0.199688   -6.035948  -11.301592
     56          7           0        1.354456   -5.950452   -8.110141
     57          8           0       -0.354019   -7.354588   -9.863870
     58          1           0        0.694034   -1.909558   -4.850684
     59          1           0        1.054721   -6.148007   -5.384684
 ---------------------------------------------------------------------
 Rotational constants (GHZ):           0.1626813           0.1212923           0.1089339
 Leave Link  202 at Thu Feb 27 09:50:02 2025, MaxMem=  6442450944 cpu:               0.4 elap:               0.0
 (Enter /ihome/crc/install/gaussian/c01/avx2/tar/g16/l301.exe)
 Standard basis: def2TZVPP (5D, 7F)
 Ernie: Thresh=  0.10000D-02 Tol=  0.10000D-05 Strict=F.
  1387 basis functions,  2125 primitive gaussians,  1578 cartesian basis functions
   118 alpha electrons      118 beta electrons
       nuclear repulsion energy      3591.6820303580 Hartrees.
 IExCor=  402 DFT=T Ex+Corr=B3LYP ExCW=0 ScaHFX=  0.200000
 ScaDFX=  0.800000  0.720000  1.000000  0.810000 ScalE2=  1.000000  1.000000
 IRadAn=      5 IRanWt=     -1 IRanGd=            0 ICorTp=0 IEmpDi=141
 NAtoms=   59 NActive=   59 NUniq=   59 SFac= 1.00D+00 NAtFMM=   60 NAOKFM=F Big=F
 Integral buffers will be    131072 words long.
 Raffenetti 2 integral format.
 Two-electron integral symmetry is turned off.
 R6Disp:  Grimme-D3(BJ) Dispersion energy=       -0.1479816651 Hartrees.
 Nuclear repulsion after empirical dispersion term =     3591.5340486930 Hartrees.
 ------------------------------------------------------------------------------
 Polarizable Continuum Model (PCM)
 =================================
 Model                : PCM.
 Atomic radii         : SMD-Coulomb.
 Polarization charges : Total charges.
 Charge compensation  : None.
 Solution method      : On-the-fly selection.
 Cavity type          : VdW (van der Waals Surface) (Alpha=1.000).
 Cavity algorithm     : GePol (No added spheres)
                        Default sphere list used, NSphG=   59.
                        Lebedev-Laikov grids with approx.  5.0 points / Ang**2.
                        Smoothing algorithm: York/Karplus (Gamma=1.0000).
                        Polarization charges: spherical gaussians, with
                                              point-specific exponents (IZeta= 3).
                        Self-potential: point-specific (ISelfS= 7).
                        Self-field    : sphere-specific E.n sum rule (ISelfD= 2).
 Solvent              : PropylEthanoate, Eps=   5.520500 Eps(inf)=   1.916010
 ------------------------------------------------------------------------------
 GePol: Number of generator spheres                  =      59
 GePol: Total number of spheres                      =      59
 GePol: Number of exposed spheres                    =      58 ( 98.31%)
 GePol: Number of points                             =    4283
 GePol: Average weight of points                     =       0.11
 GePol: Minimum weight of points                     =   0.59D-11
 GePol: Maximum weight of points                     =    0.21501
 GePol: Number of points with low weight             =     308
 GePol: Fraction of low-weight points (<1% of avg)   =       7.19%
 GePol: Cavity surface area                          =    470.727 Ang**2
 GePol: Cavity volume                                =    493.697 Ang**3
 ------------------------------------------------------------------------------
 Atomic radii for non-electrostatic terms: SMD-CDS.
 ------------------------------------------------------------------------------
 PCM non-electrostatic energy =        -0.0141643075 Hartrees.
 Nuclear repulsion after PCM non-electrostatic terms =     3591.5198843854 Hartrees.
 Leave Link  301 at Thu Feb 27 09:50:02 2025, MaxMem=  6442450944 cpu:               2.1 elap:               0.1
 (Enter /ihome/crc/install/gaussian/c01/avx2/tar/g16/l302.exe)
 NPDir=0 NMtPBC=     1 NCelOv=     1 NCel=       1 NClECP=     1 NCelD=      1
         NCelK=      1 NCelE2=     1 NClLst=     1 CellRange=     0.0.
 One-electron integrals computed using PRISM.
   1 Symmetry operations used in ECPInt.
 ECPInt:  NShTT=  134940 NPrTT=  377950 LenC2=  111720 LenP2D=  219288.
 LDataN:  DoStor=T MaxTD1= 6 Len=  172
 NBasis=  1387 RedAO= T EigKep=  5.85D-06  NBF=  1387
 NBsUse=  1387 1.00D-06 EigRej= -1.00D+00 NBFU=  1387
 Precomputing XC quadrature grid using
 IXCGrd= 4 IRadAn=           5 IRanWt=          -1 IRanGd=           0 AccXCQ= 0.00D+00.
 Generated NRdTot=       0 NPtTot=           0 NUsed=           0 NTot=          32
 NSgBfM=  1556  1545  1553  1556  1556 MxSgAt=    59 MxSgA2=    59.
 Leave Link  302 at Thu Feb 27 09:50:04 2025, MaxMem=  6442450944 cpu:              65.2 elap:               2.2
 (Enter /ihome/crc/install/gaussian/c01/avx2/tar/g16/l303.exe)
 DipDrv:  MaxL=1.
 Leave Link  303 at Thu Feb 27 09:50:04 2025, MaxMem=  6442450944 cpu:               4.4 elap:               0.2
 (Enter /ihome/crc/install/gaussian/c01/avx2/tar/g16/l401.exe)
 ExpMin= 9.52D-02 ExpMax= 3.55D+04 ExpMxC= 1.21D+03 IAcc=3 IRadAn=         5 AccDes= 0.00D+00
 Harris functional with IExCor=  402 and IRadAn=       5 diagonalized for initial guess.
 HarFok:  IExCor=  402 AccDes= 0.00D+00 IRadAn=         5 IDoV= 1 UseB2=F ITyADJ=14
 ICtDFT=  3500011 ScaDFX=  1.000000  1.000000  1.000000  1.000000
 FoFCou: FMM=F IPFlag=           0 FMFlag=      100000 FMFlg1=           0
         NFxFlg=           0 DoJE=T BraDBF=F KetDBF=T FulRan=T
         wScrn=  0.000000 ICntrl=       500 IOpCl=  0 I1Cent=   200000004 NGrid=           0
         NMat0=    1 NMatS0=      1 NMatT0=    0 NMatD0=    1 NMtDS0=    0 NMtDT0=    0
 Symmetry not used in FoFCou.
 Harris En= -1496.98171542489    
 JPrj=0 DoOrth=F DoCkMO=F.
 Leave Link  401 at Thu Feb 27 09:50:08 2025, MaxMem=  6442450944 cpu:             110.9 elap:               3.7
 (Enter /ihome/crc/install/gaussian/c01/avx2/tar/g16/l502.exe)
 Two-electron integral symmetry not used.
 Closed shell SCF:
 Using DIIS extrapolation, IDIIS=  1040.
 NGot=  6442450944 LenX=  6437409038 LenY=  6434917376
 Requested convergence on RMS density matrix=1.00D-08 within 128 cycles.
 Requested convergence on MAX density matrix=1.00D-06.
 Requested convergence on             energy=1.00D-06.
 No special actions if energy rises.
 Fock matrices will be formed incrementally for  20 cycles.

 Cycle   1  Pass 1  IDiag  1:
 FoFJK:  IHMeth= 1 ICntrl=       0 DoSepK=F KAlg= 0 I1Cent=           0 FoldK=F
 IRaf= 740000000 NMat=       1 IRICut=       1 DoRegI=T DoRafI=F ISym2E= 0 IDoP0=0 IntGTp=1.
 FoFCou: FMM=F IPFlag=           0 FMFlag=      100000 FMFlg1=           0
         NFxFlg=           0 DoJE=F BraDBF=F KetDBF=F FulRan=T
         wScrn=  0.000000 ICntrl=         0 IOpCl=  0 I1Cent=           0 NGrid=           0
         NMat0=    1 NMatS0=      1 NMatT0=    0 NMatD0=    1 NMtDS0=    0 NMtDT0=    0
 Symmetry not used in FoFCou.
 Inv3:  Mode=1 IEnd=    55032267.
 Iteration    1 A*A^-1 deviation from unit magnitude is 3.44D-15 for   2872.
 Iteration    1 A*A^-1 deviation from orthogonality  is 3.40D-15 for   1544    550.
 Iteration    1 A^-1*A deviation from unit magnitude is 3.66D-15 for   2872.
 Iteration    1 A^-1*A deviation from orthogonality  is 1.35D-13 for   1560   1520.
 E= -1496.19048799909    
 DIIS: error= 1.47D-02 at cycle   1 NSaved=   1.
 NSaved= 1 IEnMin= 1 EnMin= -1496.19048799909     IErMin= 1 ErrMin= 1.47D-02
 ErrMax= 1.47D-02  0.00D+00 EMaxC= 1.00D-01 BMatC= 8.98D-01 BMatP= 8.98D-01
 IDIUse=3 WtCom= 8.53D-01 WtEn= 1.47D-01
 Coeff-Com:  0.100D+01
 Coeff-En:   0.100D+01
 Coeff:      0.100D+01
 Gap=     0.197 Goal=   None    Shift=    0.000
 GapD=    0.197 DampG=1.000 DampE=0.500 DampFc=0.5000 IDamp=-1.
 Damping current iteration by 5.00D-01
 RMSDP=4.31D-03 MaxDP=1.90D+00              OVMax= 2.01D-01

 Cycle   2  Pass 1  IDiag  1:
 RMSU=  2.15D-03    CP:  1.01D+00
 E= -1496.50167188247     Delta-E=       -0.311183883377 Rises=F Damp=T
 DIIS: error= 5.43D-03 at cycle   2 NSaved=   2.
 NSaved= 2 IEnMin= 2 EnMin= -1496.50167188247     IErMin= 2 ErrMin= 5.43D-03
 ErrMax= 5.43D-03  0.00D+00 EMaxC= 1.00D-01 BMatC= 8.23D-02 BMatP= 8.98D-01
 IDIUse=3 WtCom= 9.46D-01 WtEn= 5.43D-02
 Coeff-Com:  0.936D-01 0.906D+00
 Coeff-En:   0.177D+00 0.823D+00
 Coeff:      0.981D-01 0.902D+00
 Gap=     0.241 Goal=   None    Shift=    0.000
 RMSDP=1.64D-03 MaxDP=7.64D-01 DE=-3.11D-01 OVMax= 1.69D-01

 Cycle   3  Pass 1  IDiag  1:
 RMSU=  7.68D-04    CP:  9.97D-01  3.30D-01
 E= -1496.88440499133     Delta-E=       -0.382733108865 Rises=F Damp=F
 DIIS: error= 7.77D-03 at cycle   3 NSaved=   3.
 NSaved= 3 IEnMin= 3 EnMin= -1496.88440499133     IErMin= 2 ErrMin= 5.43D-03
 ErrMax= 7.77D-03  0.00D+00 EMaxC= 1.00D-01 BMatC= 9.71D-02 BMatP= 8.23D-02
 IDIUse=3 WtCom= 1.02D-01 WtEn= 8.98D-01
 Coeff-Com: -0.213D-01 0.529D+00 0.492D+00
 Coeff-En:   0.000D+00 0.000D+00 0.100D+01
 Coeff:     -0.217D-02 0.539D-01 0.948D+00
 Gap=     0.162 Goal=   None    Shift=    0.000
 RMSDP=1.35D-03 MaxDP=5.13D-01 DE=-3.83D-01 OVMax= 2.37D-01

 Cycle   4  Pass 1  IDiag  1:
 RMSU=  5.86D-04    CP:  9.94D-01  7.98D-01  1.21D-01
 E= -1496.64581932443     Delta-E=        0.238585666899 Rises=F Damp=F
 DIIS: error= 1.64D-02 at cycle   4 NSaved=   4.
 NSaved= 4 IEnMin= 3 EnMin= -1496.88440499133     IErMin= 2 ErrMin= 5.43D-03
 ErrMax= 1.64D-02  0.00D+00 EMaxC= 1.00D-01 BMatC= 3.84D-01 BMatP= 8.23D-02
 IDIUse=2 WtCom= 0.00D+00 WtEn= 1.00D+00
 Coeff-En:   0.000D+00 0.000D+00 0.745D+00 0.255D+00
 Coeff:      0.000D+00 0.000D+00 0.745D+00 0.255D+00
 Gap=     0.167 Goal=   None    Shift=    0.000
 RMSDP=8.72D-04 MaxDP=3.78D-01 DE= 2.39D-01 OVMax= 9.96D-02

 Cycle   5  Pass 1  IDiag  1:
 RMSU=  1.34D-04    CP:  9.90D-01  4.56D-01  5.89D-01  5.48D-01
 E= -1496.94757724965     Delta-E=       -0.301757925218 Rises=F Damp=F
 DIIS: error= 3.05D-03 at cycle   5 NSaved=   5.
 NSaved= 5 IEnMin= 5 EnMin= -1496.94757724965     IErMin= 5 ErrMin= 3.05D-03
 ErrMax= 3.05D-03  0.00D+00 EMaxC= 1.00D-01 BMatC= 2.08D-02 BMatP= 8.23D-02
 IDIUse=3 WtCom= 9.70D-01 WtEn= 3.05D-02
 Coeff-Com:  0.642D-02-0.583D-03 0.334D+00 0.242D-01 0.636D+00
 Coeff-En:   0.000D+00 0.000D+00 0.223D+00 0.000D+00 0.777D+00
 Coeff:      0.623D-02-0.565D-03 0.331D+00 0.235D-01 0.640D+00
 Gap=     0.161 Goal=   None    Shift=    0.000
 RMSDP=1.90D-04 MaxDP=5.01D-02 DE=-3.02D-01 OVMax= 2.60D-02

 Cycle   6  Pass 1  IDiag  1:
 RMSU=  3.17D-05    CP:  9.93D-01  4.12D-01  7.34D-01  3.69D-01  6.11D-01
 E= -1496.96479181938     Delta-E=       -0.017214569730 Rises=F Damp=F
 DIIS: error= 4.44D-04 at cycle   6 NSaved=   6.
 NSaved= 6 IEnMin= 6 EnMin= -1496.96479181938     IErMin= 6 ErrMin= 4.44D-04
 ErrMax= 4.44D-04  0.00D+00 EMaxC= 1.00D-01 BMatC= 4.44D-04 BMatP= 2.08D-02
 IDIUse=3 WtCom= 9.96D-01 WtEn= 4.44D-03
 Coeff-Com:  0.198D-02-0.602D-02 0.134D+00-0.229D-01 0.411D+00 0.482D+00
 Coeff-En:   0.000D+00 0.000D+00 0.000D+00 0.000D+00 0.000D+00 0.100D+01
 Coeff:      0.198D-02-0.599D-02 0.134D+00-0.228D-01 0.409D+00 0.484D+00
 Gap=     0.160 Goal=   None    Shift=    0.000
 RMSDP=2.29D-05 MaxDP=4.97D-03 DE=-1.72D-02 OVMax= 4.44D-03

 Cycle   7  Pass 1  IDiag  1:
 RMSU=  8.59D-06    CP:  9.93D-01  4.07D-01  7.29D-01  3.79D-01  7.04D-01
                    CP:  6.63D-01
 E= -1496.96515166455     Delta-E=       -0.000359845169 Rises=F Damp=F
 DIIS: error= 6.87D-05 at cycle   7 NSaved=   7.
 NSaved= 7 IEnMin= 7 EnMin= -1496.96515166455     IErMin= 7 ErrMin= 6.87D-05
 ErrMax= 6.87D-05  0.00D+00 EMaxC= 1.00D-01 BMatC= 2.19D-05 BMatP= 4.44D-04
 IDIUse=1 WtCom= 1.00D+00 WtEn= 0.00D+00
 Coeff-Com:  0.592D-03-0.227D-02 0.528D-01-0.177D-01 0.194D+00 0.261D+00
 Coeff-Com:  0.512D+00
 Coeff:      0.592D-03-0.227D-02 0.528D-01-0.177D-01 0.194D+00 0.261D+00
 Coeff:      0.512D+00
 Gap=     0.160 Goal=   None    Shift=    0.000
 RMSDP=5.15D-06 MaxDP=1.02D-03 DE=-3.60D-04 OVMax= 1.47D-03

 Cycle   8  Pass 1  IDiag  1:
 RMSU=  3.47D-06    CP:  9.92D-01  4.07D-01  7.27D-01  3.80D-01  7.14D-01
                    CP:  6.60D-01  6.91D-01
 E= -1496.96516961563     Delta-E=       -0.000017951078 Rises=F Damp=F
 DIIS: error= 3.64D-05 at cycle   8 NSaved=   8.
 NSaved= 8 IEnMin= 8 EnMin= -1496.96516961563     IErMin= 8 ErrMin= 3.64D-05
 ErrMax= 3.64D-05  0.00D+00 EMaxC= 1.00D-01 BMatC= 2.86D-06 BMatP= 2.19D-05
 IDIUse=1 WtCom= 1.00D+00 WtEn= 0.00D+00
 Coeff-Com:  0.152D-03-0.380D-03 0.131D-01-0.701D-02 0.549D-01 0.721D-01
 Coeff-Com:  0.292D+00 0.575D+00
 Coeff:      0.152D-03-0.380D-03 0.131D-01-0.701D-02 0.549D-01 0.721D-01
 Coeff:      0.292D+00 0.575D+00
 Gap=     0.160 Goal=   None    Shift=    0.000
 RMSDP=2.22D-06 MaxDP=7.53D-04 DE=-1.80D-05 OVMax= 4.21D-04

 Cycle   9  Pass 1  IDiag  1:
 RMSU=  1.06D-06    CP:  9.92D-01  4.07D-01  7.28D-01  3.80D-01  7.16D-01
                    CP:  6.56D-01  7.53D-01  7.86D-01
 E= -1496.96517177887     Delta-E=       -0.000002163244 Rises=F Damp=F
 DIIS: error= 6.79D-06 at cycle   9 NSaved=   9.
 NSaved= 9 IEnMin= 9 EnMin= -1496.96517177887     IErMin= 9 ErrMin= 6.79D-06
 ErrMax= 6.79D-06  0.00D+00 EMaxC= 1.00D-01 BMatC= 2.53D-07 BMatP= 2.86D-06
 IDIUse=1 WtCom= 1.00D+00 WtEn= 0.00D+00
 Coeff-Com:  0.544D-04-0.133D-03 0.333D-02-0.251D-02 0.152D-01 0.169D-01
 Coeff-Com:  0.118D+00 0.315D+00 0.534D+00
 Coeff:      0.544D-04-0.133D-03 0.333D-02-0.251D-02 0.152D-01 0.169D-01
 Coeff:      0.118D+00 0.315D+00 0.534D+00
 Gap=     0.160 Goal=   None    Shift=    0.000
 RMSDP=7.34D-07 MaxDP=1.75D-04 DE=-2.16D-06 OVMax= 2.03D-04

 Cycle  10  Pass 1  IDiag  1:
 RMSU=  3.40D-07    CP:  9.92D-01  4.07D-01  7.28D-01  3.79D-01  7.15D-01
                    CP:  6.60D-01  7.67D-01  8.00D-01  7.17D-01
 E= -1496.96517201452     Delta-E=       -0.000000235647 Rises=F Damp=F
 DIIS: error= 1.95D-06 at cycle  10 NSaved=  10.
 NSaved=10 IEnMin=10 EnMin= -1496.96517201452     IErMin=10 ErrMin= 1.95D-06
 ErrMax= 1.95D-06  0.00D+00 EMaxC= 1.00D-01 BMatC= 2.21D-08 BMatP= 2.53D-07
 IDIUse=1 WtCom= 1.00D+00 WtEn= 0.00D+00
 Coeff-Com:  0.193D-04-0.552D-04 0.442D-03-0.534D-03 0.213D-02 0.827D-03
 Coeff-Com:  0.313D-01 0.103D+00 0.286D+00 0.578D+00
 Coeff:      0.193D-04-0.552D-04 0.442D-03-0.534D-03 0.213D-02 0.827D-03
 Coeff:      0.313D-01 0.103D+00 0.286D+00 0.578D+00
 Gap=     0.160 Goal=   None    Shift=    0.000
 RMSDP=2.24D-07 MaxDP=6.29D-05 DE=-2.36D-07 OVMax= 6.89D-05

 Cycle  11  Pass 1  IDiag  1:
 RMSU=  1.11D-07    CP:  9.92D-01  4.07D-01  7.28D-01  3.79D-01  7.15D-01
                    CP:  6.59D-01  7.70D-01  8.05D-01  7.84D-01  7.59D-01
 E= -1496.96517203200     Delta-E=       -0.000000017476 Rises=F Damp=F
 DIIS: error= 8.92D-07 at cycle  11 NSaved=  11.
 NSaved=11 IEnMin=11 EnMin= -1496.96517203200     IErMin=11 ErrMin= 8.92D-07
 ErrMax= 8.92D-07  0.00D+00 EMaxC= 1.00D-01 BMatC= 4.32D-09 BMatP= 2.21D-08
 IDIUse=1 WtCom= 1.00D+00 WtEn= 0.00D+00
 Coeff-Com:  0.684D-05-0.241D-04-0.756D-04-0.604D-04-0.268D-03-0.116D-02
 Coeff-Com:  0.636D-02 0.290D-01 0.118D+00 0.364D+00 0.485D+00
 Coeff:      0.684D-05-0.241D-04-0.756D-04-0.604D-04-0.268D-03-0.116D-02
 Coeff:      0.636D-02 0.290D-01 0.118D+00 0.364D+00 0.485D+00
 Gap=     0.160 Goal=   None    Shift=    0.000
 RMSDP=5.12D-08 MaxDP=6.03D-06 DE=-1.75D-08 OVMax= 2.05D-05

 Cycle  12  Pass 1  IDiag  1:
 RMSU=  3.30D-08    CP:  9.92D-01  4.07D-01  7.28D-01  3.79D-01  7.15D-01
                    CP:  6.59D-01  7.71D-01  8.07D-01  7.81D-01  7.98D-01
                    CP:  6.90D-01
 E= -1496.96517203593     Delta-E=       -0.000000003931 Rises=F Damp=F
 DIIS: error= 2.79D-07 at cycle  12 NSaved=  12.
 NSaved=12 IEnMin=12 EnMin= -1496.96517203593     IErMin=12 ErrMin= 2.79D-07
 ErrMax= 2.79D-07  0.00D+00 EMaxC= 1.00D-01 BMatC= 1.94D-10 BMatP= 4.32D-09
 IDIUse=1 WtCom= 1.00D+00 WtEn= 0.00D+00
 Coeff-Com:  0.185D-06-0.442D-05-0.948D-04 0.243D-04-0.349D-03-0.520D-03
 Coeff-Com: -0.796D-04 0.453D-02 0.258D-01 0.108D+00 0.207D+00 0.656D+00
 Coeff:      0.185D-06-0.442D-05-0.948D-04 0.243D-04-0.349D-03-0.520D-03
 Coeff:     -0.796D-04 0.453D-02 0.258D-01 0.108D+00 0.207D+00 0.656D+00
 Gap=     0.160 Goal=   None    Shift=    0.000
 RMSDP=1.66D-08 MaxDP=3.29D-06 DE=-3.93D-09 OVMax= 3.78D-06

 Cycle  13  Pass 1  IDiag  1:
 RMSU=  1.12D-08    CP:  9.92D-01  4.07D-01  7.29D-01  3.79D-01  7.15D-01
                    CP:  6.60D-01  7.71D-01  8.07D-01  7.85D-01  8.06D-01
                    CP:  7.23D-01  8.94D-01
 E= -1496.96517203614     Delta-E=       -0.000000000216 Rises=F Damp=F
 DIIS: error= 1.30D-07 at cycle  13 NSaved=  13.
 NSaved=13 IEnMin=13 EnMin= -1496.96517203614     IErMin=13 ErrMin= 1.30D-07
 ErrMax= 1.30D-07  0.00D+00 EMaxC= 1.00D-01 BMatC= 4.01D-11 BMatP= 1.94D-10
 IDIUse=1 WtCom= 1.00D+00 WtEn= 0.00D+00
 Coeff-Com: -0.850D-06 0.239D-06-0.464D-04 0.209D-04-0.165D-03-0.136D-03
 Coeff-Com: -0.789D-03-0.445D-03 0.148D-02 0.213D-01 0.606D-01 0.373D+00
 Coeff-Com:  0.545D+00
 Coeff:     -0.850D-06 0.239D-06-0.464D-04 0.209D-04-0.165D-03-0.136D-03
 Coeff:     -0.789D-03-0.445D-03 0.148D-02 0.213D-01 0.606D-01 0.373D+00
 Coeff:      0.545D+00
 Gap=     0.160 Goal=   None    Shift=    0.000
 RMSDP=5.75D-09 MaxDP=8.54D-07 DE=-2.16D-10 OVMax= 1.31D-06

 Error on total polarization charges =  0.05375
 SCF Done:  E(RB3LYP) =  -1496.96517204     A.U. after   13 cycles
            NFock= 13  Conv=0.57D-08     -V/T= 2.0052
 KE= 1.489184731322D+03 PE=-1.067455144663D+04 EE= 4.096881658886D+03
 SMD-CDS (non-electrostatic) energy       (kcal/mol) =      -8.89
 (included in total energy above)
 Leave Link  502 at Thu Feb 27 10:00:04 2025, MaxMem=  6442450944 cpu:           18637.6 elap:             595.9
 (Enter /ihome/crc/install/gaussian/c01/avx2/tar/g16/l601.exe)
 Copying SCF densities to generalized density rwf, IOpCl= 0 IROHF=0.

 **********************************************************************

            Population analysis using the SCF Density.

 **********************************************************************

 Alpha  occ. eigenvalues --  -24.69991 -19.13010 -19.10991 -19.08231 -14.35462
 Alpha  occ. eigenvalues --  -14.35311 -14.27696 -10.27436 -10.26538 -10.25804
 Alpha  occ. eigenvalues --  -10.24877 -10.23971 -10.21833 -10.21205 -10.20921
 Alpha  occ. eigenvalues --  -10.20842 -10.20146 -10.20041 -10.19928 -10.18744
 Alpha  occ. eigenvalues --  -10.18697 -10.18454 -10.18317 -10.17948 -10.17805
 Alpha  occ. eigenvalues --  -10.17560 -10.17459 -10.17372 -10.17325 -10.17199
 Alpha  occ. eigenvalues --  -10.16919 -10.16900 -10.16457  -1.24022  -1.04881
 Alpha  occ. eigenvalues --   -1.04595  -1.02264  -1.00030  -0.94342  -0.90348
 Alpha  occ. eigenvalues --   -0.87995  -0.85200  -0.83445  -0.80384  -0.78071
 Alpha  occ. eigenvalues --   -0.77952  -0.76244  -0.75289  -0.74310  -0.72881
 Alpha  occ. eigenvalues --   -0.72226  -0.70486  -0.67069  -0.66214  -0.65073
 Alpha  occ. eigenvalues --   -0.63269  -0.63161  -0.60844  -0.59782  -0.58978
 Alpha  occ. eigenvalues --   -0.58476  -0.57323  -0.56217  -0.54649  -0.52641
 Alpha  occ. eigenvalues --   -0.52436  -0.51073  -0.50382  -0.50032  -0.49655
 Alpha  occ. eigenvalues --   -0.48757  -0.48057  -0.47896  -0.47541  -0.47401
 Alpha  occ. eigenvalues --   -0.46726  -0.45743  -0.45597  -0.45095  -0.44776
 Alpha  occ. eigenvalues --   -0.44457  -0.44026  -0.42552  -0.42214  -0.41901
 Alpha  occ. eigenvalues --   -0.41581  -0.41502  -0.40889  -0.40532  -0.39988
 Alpha  occ. eigenvalues --   -0.39187  -0.38802  -0.38557  -0.38431  -0.38104
 Alpha  occ. eigenvalues --   -0.37825  -0.37728  -0.37515  -0.36546  -0.36133
 Alpha  occ. eigenvalues --   -0.35884  -0.35174  -0.34337  -0.33779  -0.33329
 Alpha  occ. eigenvalues --   -0.32662  -0.30561  -0.29525  -0.29226  -0.27989
 Alpha  occ. eigenvalues --   -0.27396  -0.26118  -0.25684  -0.25539  -0.25054
 Alpha  occ. eigenvalues --   -0.23865  -0.23633  -0.21434
 Alpha virt. eigenvalues --   -0.05405  -0.03443  -0.02724  -0.01243  -0.00664
 Alpha virt. eigenvalues --   -0.00430   0.00819   0.03633   0.04471   0.04979
 Alpha virt. eigenvalues --    0.05378   0.05642   0.06078   0.06445   0.06792
 Alpha virt. eigenvalues --    0.07877   0.07954   0.08602   0.08878   0.09428
 Alpha virt. eigenvalues --    0.09731   0.09956   0.10233   0.10592   0.10808
 Alpha virt. eigenvalues --    0.10959   0.11408   0.11695   0.12125   0.12338
 Alpha virt. eigenvalues --    0.12932   0.13132   0.13324   0.13664   0.14059
 Alpha virt. eigenvalues --    0.14105   0.14436   0.14573   0.15000   0.15559
 Alpha virt. eigenvalues --    0.15868   0.16462   0.16622   0.17037   0.17372
 Alpha virt. eigenvalues --    0.17811   0.18306   0.18776   0.18897   0.19247
 Alpha virt. eigenvalues --    0.19680   0.20130   0.20298   0.20652   0.20715
 Alpha virt. eigenvalues --    0.21116   0.21596   0.22275   0.22412   0.22767
 Alpha virt. eigenvalues --    0.23090   0.23184   0.23397   0.23773   0.24224
 Alpha virt. eigenvalues --    0.24453   0.25289   0.25628   0.25896   0.26240
 Alpha virt. eigenvalues --    0.26305   0.26780   0.27236   0.27334   0.27978
 Alpha virt. eigenvalues --    0.28384   0.28759   0.28996   0.29247   0.29747
 Alpha virt. eigenvalues --    0.30017   0.30184   0.30366   0.30779   0.31144
 Alpha virt. eigenvalues --    0.31628   0.31770   0.31864   0.32358   0.32599
 Alpha virt. eigenvalues --    0.33285   0.33587   0.33716   0.33952   0.34413
 Alpha virt. eigenvalues --    0.34715   0.34909   0.35185   0.35430   0.35949
 Alpha virt. eigenvalues --    0.36178   0.36415   0.36581   0.37046   0.37309
 Alpha virt. eigenvalues --    0.37368   0.37586   0.38136   0.38320   0.38559
 Alpha virt. eigenvalues --    0.39066   0.39277   0.39488   0.39664   0.40044
 Alpha virt. eigenvalues --    0.40648   0.40817   0.41183   0.41452   0.41560
 Alpha virt. eigenvalues --    0.41836   0.42161   0.42221   0.42485   0.42934
 Alpha virt. eigenvalues --    0.43268   0.43487   0.43624   0.43934   0.44127
 Alpha virt. eigenvalues --    0.44327   0.44696   0.44812   0.45265   0.45545
 Alpha virt. eigenvalues --    0.45618   0.45809   0.46369   0.46491   0.46583
 Alpha virt. eigenvalues --    0.46808   0.47102   0.47271   0.47574   0.47954
 Alpha virt. eigenvalues --    0.48212   0.48515   0.48686   0.49409   0.49745
 Alpha virt. eigenvalues --    0.50323   0.50512   0.50875   0.51132   0.51224
 Alpha virt. eigenvalues --    0.51912   0.52010   0.52304   0.52351   0.52831
 Alpha virt. eigenvalues --    0.53114   0.53766   0.54030   0.54251   0.55095
 Alpha virt. eigenvalues --    0.55227   0.55715   0.56353   0.56718   0.57167
 Alpha virt. eigenvalues --    0.57722   0.57927   0.58432   0.59218   0.59513
 Alpha virt. eigenvalues --    0.59880   0.60824   0.60970   0.61257   0.61697
 Alpha virt. eigenvalues --    0.61962   0.62514   0.62551   0.63227   0.64144
 Alpha virt. eigenvalues --    0.64655   0.64866   0.65173   0.65536   0.65693
 Alpha virt. eigenvalues --    0.66273   0.66471   0.66962   0.67141   0.67822
 Alpha virt. eigenvalues --    0.68001   0.68326   0.68624   0.69232   0.69419
 Alpha virt. eigenvalues --    0.69925   0.70150   0.70443   0.70624   0.70803
 Alpha virt. eigenvalues --    0.71193   0.71518   0.72274   0.72353   0.73037
 Alpha virt. eigenvalues --    0.73559   0.73674   0.74693   0.74827   0.75259
 Alpha virt. eigenvalues --    0.75769   0.76113   0.76570   0.77251   0.77393
 Alpha virt. eigenvalues --    0.78083   0.78548   0.78743   0.79405   0.80055
 Alpha virt. eigenvalues --    0.80487   0.80785   0.81053   0.81755   0.82115
 Alpha virt. eigenvalues --    0.82320   0.82937   0.83174   0.83898   0.83987
 Alpha virt. eigenvalues --    0.84684   0.85003   0.85497   0.85676   0.85871
 Alpha virt. eigenvalues --    0.86211   0.86325   0.86763   0.87561   0.87898
 Alpha virt. eigenvalues --    0.88152   0.88387   0.88531   0.89578   0.89850
 Alpha virt. eigenvalues --    0.90261   0.90572   0.90973   0.91636   0.91897
 Alpha virt. eigenvalues --    0.92482   0.92832   0.93229   0.93485   0.94093
 Alpha virt. eigenvalues --    0.94727   0.95292   0.95525   0.95727   0.95965
 Alpha virt. eigenvalues --    0.96707   0.96786   0.97023   0.97410   0.97982
 Alpha virt. eigenvalues --    0.98439   0.98514   0.98925   0.99707   1.00336
 Alpha virt. eigenvalues --    1.00583   1.00743   1.01414   1.01535   1.02214
 Alpha virt. eigenvalues --    1.02436   1.03399   1.03729   1.03958   1.04557
 Alpha virt. eigenvalues --    1.04701   1.05108   1.05858   1.06085   1.06566
 Alpha virt. eigenvalues --    1.06933   1.07141   1.07831   1.08028   1.08193
 Alpha virt. eigenvalues --    1.08647   1.09174   1.09460   1.09820   1.10238
 Alpha virt. eigenvalues --    1.10589   1.10826   1.11240   1.11851   1.12278
 Alpha virt. eigenvalues --    1.12771   1.12970   1.13231   1.13837   1.14175
 Alpha virt. eigenvalues --    1.14317   1.14573   1.15136   1.15360   1.15745
 Alpha virt. eigenvalues --    1.16202   1.16485   1.16621   1.17286   1.18079
 Alpha virt. eigenvalues --    1.18200   1.18643   1.18986   1.19249   1.19285
 Alpha virt. eigenvalues --    1.19867   1.20705   1.21454   1.21908   1.22301
 Alpha virt. eigenvalues --    1.22400   1.22469   1.23466   1.24118   1.24152
 Alpha virt. eigenvalues --    1.24784   1.25164   1.25360   1.25762   1.26167
 Alpha virt. eigenvalues --    1.26360   1.26589   1.26881   1.27938   1.28224
 Alpha virt. eigenvalues --    1.28519   1.29216   1.29741   1.29802   1.30355
 Alpha virt. eigenvalues --    1.30442   1.30843   1.31032   1.31800   1.31997
 Alpha virt. eigenvalues --    1.32282   1.32998   1.33119   1.33428   1.34593
 Alpha virt. eigenvalues --    1.35152   1.35374   1.35916   1.36322   1.36726
 Alpha virt. eigenvalues --    1.36879   1.37009   1.37630   1.37963   1.38343
 Alpha virt. eigenvalues --    1.38559   1.39718   1.40008   1.40180   1.40323
 Alpha virt. eigenvalues --    1.41121   1.41912   1.42422   1.42548   1.42963
 Alpha virt. eigenvalues --    1.43544   1.44051   1.44219   1.44429   1.44461
 Alpha virt. eigenvalues --    1.45009   1.45308   1.45347   1.45990   1.47095
 Alpha virt. eigenvalues --    1.47418   1.47570   1.48006   1.48130   1.48665
 Alpha virt. eigenvalues --    1.49664   1.50014   1.50135   1.50734   1.50964
 Alpha virt. eigenvalues --    1.51176   1.51644   1.52068   1.53025   1.53350
 Alpha virt. eigenvalues --    1.53519   1.54079   1.54490   1.55017   1.55640
 Alpha virt. eigenvalues --    1.55916   1.56403   1.56846   1.57182   1.58180
 Alpha virt. eigenvalues --    1.58793   1.59259   1.59618   1.60280   1.60569
 Alpha virt. eigenvalues --    1.60890   1.61149   1.61689   1.63024   1.63188
 Alpha virt. eigenvalues --    1.63604   1.64156   1.64635   1.64973   1.65517
 Alpha virt. eigenvalues --    1.65819   1.66351   1.66681   1.67193   1.67859
 Alpha virt. eigenvalues --    1.68242   1.68746   1.69334   1.69626   1.70135
 Alpha virt. eigenvalues --    1.70528   1.70982   1.71497   1.71914   1.72816
 Alpha virt. eigenvalues --    1.73192   1.73999   1.74081   1.74535   1.74847
 Alpha virt. eigenvalues --    1.75925   1.76532   1.76961   1.77366   1.77956
 Alpha virt. eigenvalues --    1.78383   1.79246   1.79736   1.80981   1.81252
 Alpha virt. eigenvalues --    1.81683   1.82240   1.82560   1.83311   1.83924
 Alpha virt. eigenvalues --    1.85016   1.85314   1.86360   1.86907   1.87713
 Alpha virt. eigenvalues --    1.88072   1.89731   1.90012   1.90443   1.90729
 Alpha virt. eigenvalues --    1.91671   1.92465   1.93360   1.94117   1.94631
 Alpha virt. eigenvalues --    1.95009   1.95316   1.95984   1.96606   1.97698
 Alpha virt. eigenvalues --    1.97893   1.98301   1.98818   1.99838   2.00135
 Alpha virt. eigenvalues --    2.00640   2.00900   2.01639   2.02552   2.03124
 Alpha virt. eigenvalues --    2.04253   2.04755   2.05140   2.05666   2.06409
 Alpha virt. eigenvalues --    2.07176   2.07799   2.08232   2.08717   2.09065
 Alpha virt. eigenvalues --    2.09392   2.10414   2.11305   2.11950   2.12310
 Alpha virt. eigenvalues --    2.12768   2.13145   2.13990   2.14812   2.15050
 Alpha virt. eigenvalues --    2.15586   2.16550   2.17240   2.18654   2.19401
 Alpha virt. eigenvalues --    2.20489   2.21108   2.21483   2.22860   2.23484
 Alpha virt. eigenvalues --    2.23778   2.24701   2.25552   2.26498   2.27563
 Alpha virt. eigenvalues --    2.28843   2.28944   2.29899   2.30383   2.30901
 Alpha virt. eigenvalues --    2.31074   2.32071   2.32171   2.33082   2.33284
 Alpha virt. eigenvalues --    2.33948   2.34928   2.35198   2.36100   2.36340
 Alpha virt. eigenvalues --    2.37217   2.37697   2.38980   2.40051   2.40309
 Alpha virt. eigenvalues --    2.40604   2.41491   2.41964   2.42152   2.42495
 Alpha virt. eigenvalues --    2.43086   2.44527   2.44957   2.45420   2.46289
 Alpha virt. eigenvalues --    2.46675   2.47365   2.49146   2.49626   2.50683
 Alpha virt. eigenvalues --    2.51622   2.53453   2.53910   2.54474   2.55308
 Alpha virt. eigenvalues --    2.55775   2.56685   2.57145   2.57504   2.57610
 Alpha virt. eigenvalues --    2.59814   2.60164   2.60422   2.61157   2.61362
 Alpha virt. eigenvalues --    2.62255   2.62555   2.62933   2.63227   2.63952
 Alpha virt. eigenvalues --    2.65231   2.65725   2.66727   2.67507   2.68152
 Alpha virt. eigenvalues --    2.68825   2.69344   2.70159   2.70584   2.71476
 Alpha virt. eigenvalues --    2.71691   2.72174   2.72234   2.72279   2.72863
 Alpha virt. eigenvalues --    2.73452   2.73894   2.74366   2.75019   2.75290
 Alpha virt. eigenvalues --    2.76180   2.76517   2.77043   2.77350   2.77984
 Alpha virt. eigenvalues --    2.78341   2.78866   2.79011   2.79398   2.79591
 Alpha virt. eigenvalues --    2.80161   2.80536   2.80817   2.81107   2.81377
 Alpha virt. eigenvalues --    2.82211   2.82713   2.83465   2.83899   2.84199
 Alpha virt. eigenvalues --    2.84537   2.85101   2.85635   2.86592   2.86992
 Alpha virt. eigenvalues --    2.87393   2.88379   2.88616   2.88899   2.89433
 Alpha virt. eigenvalues --    2.90132   2.90202   2.90943   2.91439   2.91795
 Alpha virt. eigenvalues --    2.92323   2.92698   2.93026   2.93532   2.93783
 Alpha virt. eigenvalues --    2.94237   2.94691   2.95297   2.95382   2.96108
 Alpha virt. eigenvalues --    2.96871   2.97154   2.97558   2.97650   2.97973
 Alpha virt. eigenvalues --    2.99237   2.99476   2.99836   3.00826   3.01051
 Alpha virt. eigenvalues --    3.01089   3.01715   3.01994   3.02508   3.02690
 Alpha virt. eigenvalues --    3.02933   3.03010   3.03376   3.03833   3.04200
 Alpha virt. eigenvalues --    3.04727   3.05193   3.05481   3.05717   3.05844
 Alpha virt. eigenvalues --    3.06149   3.06638   3.06891   3.07282   3.08067
 Alpha virt. eigenvalues --    3.08389   3.08439   3.09161   3.09263   3.09698
 Alpha virt. eigenvalues --    3.09894   3.10122   3.10877   3.11024   3.11576
 Alpha virt. eigenvalues --    3.11932   3.12626   3.12657   3.12886   3.13693
 Alpha virt. eigenvalues --    3.13843   3.13957   3.14375   3.14457   3.14733
 Alpha virt. eigenvalues --    3.14907   3.15186   3.15745   3.15979   3.16540
 Alpha virt. eigenvalues --    3.17029   3.17202   3.17618   3.17768   3.17988
 Alpha virt. eigenvalues --    3.18469   3.18701   3.19095   3.19421   3.19863
 Alpha virt. eigenvalues --    3.20141   3.20873   3.21477   3.21762   3.22496
 Alpha virt. eigenvalues --    3.22814   3.23191   3.23378   3.24349   3.24473
 Alpha virt. eigenvalues --    3.24846   3.25108   3.25293   3.26043   3.26236
 Alpha virt. eigenvalues --    3.26759   3.27334   3.27782   3.28103   3.28572
 Alpha virt. eigenvalues --    3.28987   3.29387   3.29643   3.29986   3.30630
 Alpha virt. eigenvalues --    3.30994   3.31489   3.32200   3.32370   3.32809
 Alpha virt. eigenvalues --    3.33156   3.33426   3.34105   3.34323   3.34551
 Alpha virt. eigenvalues --    3.34589   3.34983   3.35272   3.35442   3.35876
 Alpha virt. eigenvalues --    3.36218   3.37190   3.37559   3.37928   3.38256
 Alpha virt. eigenvalues --    3.38585   3.38758   3.39517   3.40129   3.40431
 Alpha virt. eigenvalues --    3.40657   3.41316   3.41612   3.41845   3.42470
 Alpha virt. eigenvalues --    3.43131   3.43202   3.43741   3.43836   3.44883
 Alpha virt. eigenvalues --    3.45076   3.45549   3.46413   3.46520   3.46969
 Alpha virt. eigenvalues --    3.47551   3.48241   3.48539   3.49175   3.49625
 Alpha virt. eigenvalues --    3.50016   3.50147   3.50441   3.50721   3.50967
 Alpha virt. eigenvalues --    3.51682   3.52224   3.52639   3.53067   3.53375
 Alpha virt. eigenvalues --    3.53688   3.54084   3.54521   3.54798   3.54931
 Alpha virt. eigenvalues --    3.55217   3.55941   3.56252   3.57618   3.58031
 Alpha virt. eigenvalues --    3.58109   3.58406   3.59101   3.59348   3.60020
 Alpha virt. eigenvalues --    3.60275   3.60439   3.61155   3.61541   3.62356
 Alpha virt. eigenvalues --    3.62515   3.62866   3.63208   3.63984   3.64364
 Alpha virt. eigenvalues --    3.65267   3.65658   3.65969   3.66396   3.66983
 Alpha virt. eigenvalues --    3.67041   3.67175   3.67680   3.68254   3.68780
 Alpha virt. eigenvalues --    3.69220   3.69644   3.70425   3.70778   3.71081
 Alpha virt. eigenvalues --    3.71572   3.71968   3.71970   3.72386   3.72968
 Alpha virt. eigenvalues --    3.73570   3.74186   3.74687   3.74867   3.76112
 Alpha virt. eigenvalues --    3.76398   3.76787   3.77292   3.77511   3.77727
 Alpha virt. eigenvalues --    3.77808   3.78217   3.78659   3.79126   3.79798
 Alpha virt. eigenvalues --    3.80620   3.81037   3.81546   3.82016   3.82161
 Alpha virt. eigenvalues --    3.82914   3.83527   3.83607   3.84255   3.84570
 Alpha virt. eigenvalues --    3.84910   3.84966   3.85372   3.85984   3.86323
 Alpha virt. eigenvalues --    3.87134   3.87450   3.87489   3.88347   3.88958
 Alpha virt. eigenvalues --    3.89245   3.89462   3.89734   3.91140   3.91610
 Alpha virt. eigenvalues --    3.92156   3.92417   3.92747   3.93219   3.93398
 Alpha virt. eigenvalues --    3.93933   3.94729   3.94814   3.95700   3.95814
 Alpha virt. eigenvalues --    3.96339   3.96963   3.97237   3.98530   3.98745
 Alpha virt. eigenvalues --    3.99536   3.99895   4.00148   4.01051   4.01618
 Alpha virt. eigenvalues --    4.01774   4.02004   4.02367   4.02846   4.03385
 Alpha virt. eigenvalues --    4.03663   4.04453   4.05202   4.05734   4.06390
 Alpha virt. eigenvalues --    4.06532   4.08008   4.08283   4.09090   4.09520
 Alpha virt. eigenvalues --    4.09928   4.10022   4.10379   4.10658   4.11248
 Alpha virt. eigenvalues --    4.11985   4.12278   4.12435   4.12742   4.13244
 Alpha virt. eigenvalues --    4.13609   4.14658   4.14827   4.15208   4.15675
 Alpha virt. eigenvalues --    4.16054   4.16424   4.16843   4.16940   4.17654
 Alpha virt. eigenvalues --    4.17822   4.18371   4.18790   4.19105   4.19706
 Alpha virt. eigenvalues --    4.20759   4.20836   4.21175   4.21468   4.22020
 Alpha virt. eigenvalues --    4.22516   4.23609   4.24012   4.24813   4.25085
 Alpha virt. eigenvalues --    4.25632   4.25711   4.25998   4.26629   4.26963
 Alpha virt. eigenvalues --    4.27313   4.27734   4.28404   4.28450   4.28864
 Alpha virt. eigenvalues --    4.29175   4.29484   4.30441   4.30859   4.31247
 Alpha virt. eigenvalues --    4.31726   4.31893   4.32409   4.33114   4.34147
 Alpha virt. eigenvalues --    4.34339   4.34721   4.34874   4.36028   4.36358
 Alpha virt. eigenvalues --    4.36595   4.37079   4.37921   4.38986   4.39113
 Alpha virt. eigenvalues --    4.40082   4.40243   4.40458   4.41186   4.41821
 Alpha virt. eigenvalues --    4.42146   4.42720   4.43939   4.44560   4.45374
 Alpha virt. eigenvalues --    4.45580   4.46671   4.47579   4.48039   4.48644
 Alpha virt. eigenvalues --    4.49354   4.49577   4.50730   4.51276   4.51712
 Alpha virt. eigenvalues --    4.53544   4.54478   4.54735   4.55909   4.56600
 Alpha virt. eigenvalues --    4.57560   4.58755   4.59204   4.60617   4.61024
 Alpha virt. eigenvalues --    4.61731   4.62550   4.63177   4.64099   4.64302
 Alpha virt. eigenvalues --    4.64884   4.65534   4.65708   4.66198   4.66402
 Alpha virt. eigenvalues --    4.66857   4.67581   4.67902   4.68303   4.68779
 Alpha virt. eigenvalues --    4.69263   4.69664   4.70438   4.70519   4.71518
 Alpha virt. eigenvalues --    4.71781   4.72408   4.73589   4.74135   4.74873
 Alpha virt. eigenvalues --    4.75349   4.75842   4.77011   4.77548   4.78019
 Alpha virt. eigenvalues --    4.78197   4.79300   4.79964   4.80106   4.81084
 Alpha virt. eigenvalues --    4.82179   4.83220   4.83677   4.84463   4.85311
 Alpha virt. eigenvalues --    4.85882   4.86599   4.87074   4.87358   4.87603
 Alpha virt. eigenvalues --    4.88400   4.89355   4.89604   4.91014   4.92113
 Alpha virt. eigenvalues --    4.92406   4.94247   4.94740   4.95472   4.96034
 Alpha virt. eigenvalues --    4.96581   4.98145   4.99273   4.99946   5.00195
 Alpha virt. eigenvalues --    5.00980   5.01916   5.02470   5.03196   5.04082
 Alpha virt. eigenvalues --    5.05098   5.06040   5.06285   5.06832   5.07558
 Alpha virt. eigenvalues --    5.08563   5.09347   5.10091   5.10985   5.11138
 Alpha virt. eigenvalues --    5.11843   5.12982   5.13426   5.14269   5.14692
 Alpha virt. eigenvalues --    5.15442   5.16323   5.18012   5.18715   5.19247
 Alpha virt. eigenvalues --    5.19511   5.19906   5.20123   5.20940   5.21613
 Alpha virt. eigenvalues --    5.22282   5.22753   5.22866   5.23709   5.23810
 Alpha virt. eigenvalues --    5.24254   5.25300   5.26864   5.28085   5.28123
 Alpha virt. eigenvalues --    5.28838   5.29745   5.30916   5.31363   5.32044
 Alpha virt. eigenvalues --    5.32315   5.33119   5.33947   5.34717   5.35256
 Alpha virt. eigenvalues --    5.35842   5.36396   5.37421   5.37864   5.39322
 Alpha virt. eigenvalues --    5.39560   5.39938   5.41730   5.41926   5.42467
 Alpha virt. eigenvalues --    5.43456   5.44577   5.45708   5.46354   5.48029
 Alpha virt. eigenvalues --    5.48303   5.48506   5.48686   5.50119   5.50410
 Alpha virt. eigenvalues --    5.51347   5.51908   5.52823   5.53124   5.53524
 Alpha virt. eigenvalues --    5.54272   5.54786   5.56065   5.56467   5.57822
 Alpha virt. eigenvalues --    5.58374   5.60348   5.61577   5.61867   5.62140
 Alpha virt. eigenvalues --    5.62624   5.62966   5.63746   5.64368   5.65266
 Alpha virt. eigenvalues --    5.67239   5.68756   5.69702   5.70245   5.70756
 Alpha virt. eigenvalues --    5.72015   5.73702   5.74512   5.74699   5.76331
 Alpha virt. eigenvalues --    5.77429   5.79106   5.80409   5.81000   5.81449
 Alpha virt. eigenvalues --    5.82395   5.85041   5.85756   5.86044   5.88162
 Alpha virt. eigenvalues --    5.91395   5.93779   5.95461   5.97371   5.98752
 Alpha virt. eigenvalues --    6.03066   6.05122   6.05477   6.06785   6.08434
 Alpha virt. eigenvalues --    6.09485   6.11960   6.14187   6.17576   6.20710
 Alpha virt. eigenvalues --    6.22383   6.23941   6.28313   6.29531   6.35598
 Alpha virt. eigenvalues --    6.41036   6.41910   6.42799   6.47912   6.49330
 Alpha virt. eigenvalues --    6.56611   6.67725   6.71370   6.72684   6.76499
 Alpha virt. eigenvalues --    6.82935   6.83999   6.86442   6.87359   6.88173
 Alpha virt. eigenvalues --    6.92138   6.92933   6.98514   6.99992   7.03104
 Alpha virt. eigenvalues --    7.08202   7.11161   7.12541   7.21075   7.25783
 Alpha virt. eigenvalues --    7.34303   7.35185   7.41684   7.47085   7.65674
 Alpha virt. eigenvalues --    7.82435   8.38939   8.58093   8.78056   9.03193
 Alpha virt. eigenvalues --    9.04912  22.69686  22.76583  22.89305  23.04171
 Alpha virt. eigenvalues --   23.08170  23.10567  23.11599  23.14434  23.16645
 Alpha virt. eigenvalues --   23.18397  23.20654  23.26402  23.27472  23.29274
 Alpha virt. eigenvalues --   23.30270  23.35514  23.40127  23.41599  23.42583
 Alpha virt. eigenvalues --   23.44726  23.52507  23.57717  23.64841  23.75320
 Alpha virt. eigenvalues --   23.90547  24.13086  32.57926  33.01147  33.31017
 Alpha virt. eigenvalues --   43.97652  44.31051  44.39379  57.46453
          Condensed to atoms (all electrons):
 Mulliken charges:
               1
     1  N   -0.421958
     2  C    0.347404
     3  C   -0.119844
     4  C   -0.120646
     5  C    0.185215
     6  O   -0.369862
     7  O   -0.451195
     8  H    0.089998
     9  H    0.091377
    10  H    0.080148
    11  H    0.079991
    12  C    0.140341
    13  C   -0.197651
    14  C    0.029506
    15  C   -0.165382
    16  C    0.177165
    17  N   -0.158670
    18  H    0.135334
    19  C   -0.069523
    20  C    0.137875
    21  C   -0.211520
    22  C   -0.254448
    23  C   -0.113819
    24  H    0.154721
    25  H    0.156746
    26  H    0.143427
    27  C    0.393335
    28  C    0.023605
    29  C   -0.221829
    30  C   -0.195036
    31  C   -0.158347
    32  H    0.146278
    33  C   -0.157141
    34  H    0.167897
    35  C   -0.152284
    36  H    0.148553
    37  H    0.150731
    38  H    0.149731
    39  F   -0.217819
    40  C   -0.269131
    41  H    0.116884
    42  H    0.109909
    43  H    0.089561
    44  C   -0.024506
    45  C   -0.032456
    46  C    0.008942
    47  H    0.070881
    48  H    0.089575
    49  C   -0.005705
    50  H    0.089693
    51  H    0.095440
    52  H    0.079227
    53  H    0.095286
    54  H    0.078393
    55  H    0.096159
    56  N   -0.117672
    57  O   -0.343810
    58  H    0.148248
    59  H    0.252678
 Sum of Mulliken charges =  -0.00000
 Mulliken charges with hydrogens summed into heavy atoms:
               1
     1  N   -0.421958
     2  C    0.347404
     3  C    0.061531
     4  C    0.039494
     5  C    0.185215
     6  O   -0.369862
     7  O   -0.451195
    12  C    0.140341
    13  C   -0.049404
    14  C    0.029506
    15  C   -0.030048
    16  C    0.177165
    17  N    0.094008
    19  C   -0.069523
    20  C    0.137875
    21  C   -0.056799
    22  C   -0.111021
    23  C    0.042927
    27  C    0.393335
    28  C    0.023605
    29  C   -0.075550
    30  C   -0.027139
    31  C   -0.009795
    33  C   -0.006410
    35  C   -0.002553
    39  F   -0.217819
    40  C    0.047223
    44  C    0.135950
    45  C    0.152678
    46  C    0.183455
    49  C    0.168846
    56  N   -0.117672
    57  O   -0.343810
 Electronic spatial extent (au):  <R**2>=          57721.0433
 Charge=              0.0000 electrons
 Dipole moment (field-independent basis, Debye):
    X=              5.3216    Y=              5.5494    Z=             -1.3628  Tot=              7.8084
 Quadrupole moment (field-independent basis, Debye-Ang):
   XX=           -216.0717   YY=           -236.3515   ZZ=           -144.1016
   XY=            -38.9151   XZ=            -39.2926   YZ=            -34.4049
 Traceless Quadrupole moment (field-independent basis, Debye-Ang):
   XX=            -17.2301   YY=            -37.5099   ZZ=             54.7400
   XY=            -38.9151   XZ=            -39.2926   YZ=            -34.4049
 Octapole moment (field-independent basis, Debye-Ang**2):
  XXX=            242.8759  YYY=           3174.7785  ZZZ=           2418.7001  XYY=            322.3062
  XXY=           1155.5412  XXZ=           1123.0797  XZZ=            367.9515  YZZ=           1042.1417
  YYZ=           1351.4423  XYZ=            264.6444
 Hexadecapole moment (field-independent basis, Debye-Ang**3):
 XXXX=          -4229.3893 YYYY=         -35699.2628 ZZZZ=         -32747.9540 XXXY=          -1339.6677
 XXXZ=           -675.1742 YYYX=          -2445.6428 YYYZ=         -18139.3759 ZZZX=          -2981.6465
 ZZZY=         -15108.5145 XXYY=          -7666.2080 XXZZ=          -7611.9058 YYZZ=         -14156.0798
 XXYZ=          -6101.5273 YYXZ=          -1941.6960 ZZXY=          -2231.0472
 N-N= 3.591519884385D+03 E-N=-1.067455137798D+04  KE= 1.489184731322D+03
 No NMR shielding tensors so no spin-rotation constants.
 Leave Link  601 at Thu Feb 27 10:00:05 2025, MaxMem=  6442450944 cpu:              24.4 elap:               1.1
 (Enter /ihome/crc/install/gaussian/c01/avx2/tar/g16/l9999.exe)
 Unable to Open any file for archive entry.
 1\1\GINC-SMP-N256\SP\RB3LYP\def2TZVPP\C26H26F1N3O3\BIM12\27-Feb-2025\0
 \\#p b3lyp def2tzvpp scf=maxcycle=128 nosymm scrf=(smd,solvent=propyle
 thanoate) empiricaldispersion=gd3bj\\NIH_htrans_2\\0,1\N,0,-1.23012,-7
 .027259,-5.055892\C,0,-0.210633,-7.416242,-4.321363\C,0,-0.581478,-8.2
 21053,-3.090159\C,0,-2.102194,-8.209057,-3.149092\C,0,-2.403943,-7.461
 869,-4.457598\O,0,-3.514826,-7.271718,-4.895364\O,0,1.001737,-7.147895
 ,-4.585458\H,0,-0.133041,-9.222357,-3.164314\H,0,-0.152461,-7.732274,-
 2.203332\H,0,-2.566535,-7.655549,-2.320295\H,0,-2.565642,-9.204259,-3.
 182834\C,0,0.863339,-4.025384,-5.116911\C,0,0.845404,-2.72307,-5.56028
 4\C,0,0.985074,-2.473988,-6.94042\C,0,1.144773,-3.546896,-7.794743\C,0
 ,1.18191,-4.877523,-7.29468\N,0,1.047537,-5.069551,-5.96258\H,0,1.2072
 77,-3.360085,-8.863209\C,0,0.665605,-4.337512,-3.671517\C,0,-0.517874,
 -4.011836,-2.978492\C,0,-0.598527,-4.298222,-1.606562\C,0,1.638429,-5.
 214956,-1.606686\C,0,0.463186,-4.892918,-0.929907\H,0,-1.520681,-4.062
 346,-1.073247\H,0,0.375296,-5.11218,0.135279\H,0,2.492336,-5.678874,-1
 .112517\C,0,1.710461,-4.930405,-2.960305\C,0,-1.677295,-3.362684,-3.65
 4458\C,0,-2.2731,-2.234038,-3.07464\C,0,-2.199612,-3.866353,-4.855065\
 C,0,-3.360672,-1.612243,-3.687437\H,0,-1.868805,-1.830628,-2.143579\C,
 0,-3.292099,-3.247862,-5.459674\H,0,-1.768154,-4.768691,-5.295856\C,0,
 -3.872686,-2.117404,-4.882387\H,0,-3.808201,-0.728818,-3.228492\H,0,-3
 .698193,-3.662578,-6.383986\H,0,-4.726988,-1.634537,-5.360235\F,0,2.83
 5473,-5.214264,-3.620568\C,0,0.920978,-1.0672,-7.454797\H,0,-0.062303,
 -0.62953,-7.225671\H,0,1.6777,-0.444613,-6.955583\H,0,1.08389,-1.02332
 6,-8.538599\C,0,0.878756,-7.294647,-7.778185\C,0,1.472398,-5.813122,-9
 .558917\C,0,-0.459892,-7.52981,-8.468164\H,0,0.782759,-7.437139,-6.701
 686\H,0,1.621442,-8.015595,-8.153121\C,0,0.117394,-6.074013,-10.206661
 \H,0,1.884746,-4.841238,-9.843806\H,0,2.182222,-6.582386,-9.900136\H,0
 ,-1.211986,-6.838382,-8.042852\H,0,-0.801821,-8.558749,-8.291429\H,0,-
 0.601977,-5.296484,-9.881788\H,0,0.199688,-6.035948,-11.301592\N,0,1.3
 54456,-5.950452,-8.110141\O,0,-0.354019,-7.354588,-9.86387\H,0,0.69403
 4,-1.909558,-4.850684\H,0,1.054721,-6.148007,-5.384684\\Version=ES64L-
 G16RevC.01\HF=-1496.965172\RMSD=5.746e-09\Dipole=2.093667,2.1832827,-0
 .5361663\Quadrupole=-12.8101415,-27.887677,40.6978185,-28.9324133,-29.
 2131024,-25.5791979\PG=C01 [X(C26H26F1N3O3)]\\@
 The archive entry for this job was punched.


 The most important thing in communication is to hear what isn't being said.
 -- Peter F. Drucker
 Job cpu time:       0 days  5 hours 14 minutes  7.9 seconds.
 Elapsed time:       0 days  0 hours 10 minutes  3.5 seconds.
 File lengths (MBytes):  RWF=   1301 Int=      0 D2E=      0 Chk=    113 Scr=      1
 Normal termination of Gaussian 16 at Thu Feb 27 10:00:05 2025.
