 Entering Gaussian System, Link 0=/cm/shared/apps/spack/cpu/opt/spack/linux-centos8-zen/gcc-8.3.1/gaussian-16.C.01-po5bqktfeugvmjyga3v7eigbecnokxng/g16/g16
 Initial command:
 /cm/shared/apps/spack/cpu/opt/spack/linux-centos8-zen/gcc-8.3.1/gaussian-16.C.01-po5bqktfeugvmjyga3v7eigbecnokxng/g16/l1.exe "/scratch/bim12/job_36529547/Gau-935653.inp" -scrdir="/scratch/bim12/job_36529547/"
 Entering Link 1 = /cm/shared/apps/spack/cpu/opt/spack/linux-centos8-zen/gcc-8.3.1/gaussian-16.C.01-po5bqktfeugvmjyga3v7eigbecnokxng/g16/l1.exe PID=    935654.
  
 Copyright (c) 1988-2019, Gaussian, Inc.  All Rights Reserved.
  
 This is part of the Gaussian(R) 16 program.  It is based on
 the Gaussian(R) 09 system (copyright 2009, Gaussian, Inc.),
 the Gaussian(R) 03 system (copyright 2003, Gaussian, Inc.),
 the Gaussian(R) 98 system (copyright 1998, Gaussian, Inc.),
 the Gaussian(R) 94 system (copyright 1995, Gaussian, Inc.),
 the Gaussian 92(TM) system (copyright 1992, Gaussian, Inc.),
 the Gaussian 90(TM) system (copyright 1990, Gaussian, Inc.),
 the Gaussian 88(TM) system (copyright 1988, Gaussian, Inc.),
 the Gaussian 86(TM) system (copyright 1986, Carnegie Mellon
 University), and the Gaussian 82(TM) system (copyright 1983,
 Carnegie Mellon University). Gaussian is a federally registered
 trademark of Gaussian, Inc.
  
 This software contains proprietary and confidential information,
 including trade secrets, belonging to Gaussian, Inc.
  
 This software is provided under written license and may be
 used, copied, transmitted, or stored only in accord with that
 written license.
  
 The following legend is applicable only to US Government
 contracts under FAR:
  
                    RESTRICTED RIGHTS LEGEND
  
 Use, reproduction and disclosure by the US Government is
 subject to restrictions as set forth in subparagraphs (a)
 and (c) of the Commercial Computer Software - Restricted
 Rights clause in FAR 52.227-19.
  
 Gaussian, Inc.
 340 Quinnipiac St., Bldg. 40, Wallingford CT 06492
  
  
 ---------------------------------------------------------------
 Warning -- This program may not be used in any manner that
 competes with the business of Gaussian, Inc. or will provide
 assistance to any competitor of Gaussian, Inc.  The licensee
 of this program is prohibited from giving any competitor of
 Gaussian, Inc. access to this program.  By using this program,
 the user acknowledges that Gaussian, Inc. is engaged in the
 business of creating and licensing software in the field of
 computational chemistry and represents and warrants to the
 licensee that it is not a competitor of Gaussian, Inc. and that
 it will not use this program in any manner prohibited above.
 ---------------------------------------------------------------
  

 Cite this work as:
 Gaussian 16, Revision C.01,
 M. J. Frisch, G. W. Trucks, H. B. Schlegel, G. E. Scuseria, 
 M. A. Robb, J. R. Cheeseman, G. Scalmani, V. Barone, 
 G. A. Petersson, H. Nakatsuji, X. Li, M. Caricato, A. V. Marenich, 
 J. Bloino, B. G. Janesko, R. Gomperts, B. Mennucci, H. P. Hratchian, 
 J. V. Ortiz, A. F. Izmaylov, J. L. Sonnenberg, D. Williams-Young, 
 F. Ding, F. Lipparini, F. Egidi, J. Goings, B. Peng, A. Petrone, 
 T. Henderson, D. Ranasinghe, V. G. Zakrzewski, J. Gao, N. Rega, 
 G. Zheng, W. Liang, M. Hada, M. Ehara, K. Toyota, R. Fukuda, 
 J. Hasegawa, M. Ishida, T. Nakajima, Y. Honda, O. Kitao, H. Nakai, 
 T. Vreven, K. Throssell, J. A. Montgomery, Jr., J. E. Peralta, 
 F. Ogliaro, M. J. Bearpark, J. J. Heyd, E. N. Brothers, K. N. Kudin, 
 V. N. Staroverov, T. A. Keith, R. Kobayashi, J. Normand, 
 K. Raghavachari, A. P. Rendell, J. C. Burant, S. S. Iyengar, 
 J. Tomasi, M. Cossi, J. M. Millam, M. Klene, C. Adamo, R. Cammi, 
 J. W. Ochterski, R. L. Martin, K. Morokuma, O. Farkas, 
 J. B. Foresman, and D. J. Fox, Gaussian, Inc., Wallingford CT, 2019.
 
 ******************************************
 Gaussian 16:  ES64L-G16RevC.01  3-Jul-2019
                26-Jan-2025 
 ******************************************
 %nprocshared=32
 Will use up to   32 processors via shared memory.
 %mem=54GB
 ----------------------------------------------------------------------
 #p b3lyp def2tzvpp scf=maxcycle=128 nosymm scrf=(smd,solvent=propyleth
 anoate) empiricaldispersion=gd3bj
 ----------------------------------------------------------------------
 1/38=1,172=1/1;
 2/12=2,15=1,17=6,18=5,40=1/2;
 3/5=44,7=202,11=2,25=1,30=1,70=32201,72=169,74=-5,124=41/1,2,3;
 4//1;
 5/5=2,7=128,38=5,53=169/2;
 6/7=2,8=2,9=2,10=2,28=1/1;
 99/5=1,9=1/99;
 Leave Link    1 at Sun Jan 26 08:25:37 2025, MaxMem=  7247757312 cpu:               1.8 elap:               0.1
 (Enter /cm/shared/apps/spack/cpu/opt/spack/linux-centos8-zen/gcc-8.3.1/gaussian-16.C.01-po5bqktfeugvmjyga3v7eigbecnokxng/g16/l101.exe)
 -------------------
 Title Card Required
 -------------------
 Symbolic Z-matrix:
 Charge =  0 Multiplicity = 1
 C                     1.9714   -1.71341  -0.2375 
 C                     0.53484  -1.78095  -0.57472 
 C                    -0.40751  -2.18384   0.38513 
 C                     0.08816  -2.60009   1.59828 
 C                     1.53017  -2.63484   1.82012 
 N                     2.40943  -2.15367   0.90091 
 H                    -0.6064   -2.93399   2.36654 
 C                     2.96052  -1.13003  -1.16513 
 C                     4.31703  -1.56782  -1.21991 
 C                     5.24087  -0.81878  -1.95019 
 C                     3.54076   0.75539  -2.63164 
 C                     4.86464   0.33817  -2.63611 
 H                     6.27223  -1.16909  -2.00945 
 H                     5.61096   0.90912  -3.19079 
 H                     3.20207   1.65233  -3.15002 
 C                     2.61913   0.01418  -1.90834 
 C                     4.79205  -2.84227  -0.61237 
 C                     5.99589  -2.88419   0.10361 
 C                     4.08901  -4.03652  -0.81831 
 C                     6.46575  -4.08713   0.63369 
 H                     6.56544  -1.96591   0.25102 
 C                     4.56016  -5.23761  -0.2956 
 H                     3.16594  -4.02919  -1.40092 
 C                     5.74788  -5.26666   0.4395 
 H                     7.4019   -4.10039   1.19497 
 H                     3.99386  -6.15519  -0.46852 
 H                     6.11602  -6.20864   0.8502 
 F                     1.36534   0.44489  -1.89209 
 C                    -1.86984  -2.27195   0.0853 
 H                    -2.11298  -1.78043  -0.86256 
 H                    -2.16322  -3.33297   0.04406 
 H                    -2.44413  -1.784     0.8859 
 C                     1.29821  -3.65789   4.0644 
 C                     3.48796  -3.39142   3.05758 
 C                     1.59239  -5.15879   4.19583 
 H                     0.22685  -3.4741    3.96901 
 H                     1.67479  -3.13375   4.95493 
 C                     3.67909  -4.90615   3.2327 
 H                     4.01446  -3.03021   2.16881 
 H                     3.83287  -2.86711   3.96066 
 H                     1.19767  -5.68667   3.30907 
 H                     1.08345  -5.53586   5.09164 
 H                     3.35786  -5.41999   2.30872 
 H                     4.7458   -5.10451   3.39766 
 N                     2.04972  -3.13462   2.92512 
 O                     2.96583  -5.37525   4.34231 
 I                     0.55924  -5.24914  -0.42212 
 H                     0.20805  -1.51659  -1.57992 
 C                    -2.83636   6.88847  -0.99052 
 C                    -2.81473   5.61138  -0.48269 
 C                    -1.58057   4.93845  -0.25817 
 C                    -0.37316   5.60936  -0.60399 
 C                    -0.42504   6.93504  -1.11875 
 C                    -1.63052   7.56389  -1.30367 
 H                    -3.79278   7.3855   -1.15994 
 H                    -3.75365   5.10457  -0.25996 
 C                    -1.51291   3.60507   0.2685 
 C                     0.86172   4.93862  -0.45224 
 H                     0.51308   7.43381  -1.36999 
 H                    -1.66599   8.57909  -1.70189 
 C                     0.92433   3.63957   0.01591 
 C                    -0.28702   2.97173   0.38799 
 H                     1.78631   5.4527   -0.72073 
 C                    -2.79898   2.91621   0.6268 
 C                    -3.25331   1.81431  -0.07713 
 C                    -3.53485   3.39357   1.76241 
 C                    -4.45025   1.13256   0.31533 
 C                    -4.75757   2.75289   2.11312 
 C                    -3.07945   4.47027   2.57472 
 C                    -5.18905   1.62736   1.37453 
 C                    -5.50758   3.22667   3.22596 
 C                    -3.81928   4.90095   3.65022 
 H                    -2.12924   4.95319   2.3465 
 H                    -6.10993   1.11791   1.66455 
 C                    -5.0517    4.28158   3.9759 
 H                    -6.44595   2.72603   3.47242 
 H                    -3.45161   5.72584   4.26253 
 H                    -5.62885   4.63934   4.82995 
 S                    -0.31652   1.22664   0.80512 
 O                    -1.1239    1.09461   1.98287 
 O                     1.02035   0.71229   0.92011 
 S                    -2.15409   1.1577   -1.33286 
 O                    -1.749     2.26589  -2.14213 
 O                    -2.77945   0.07287  -2.02568 
 N                    -0.97312   0.55674  -0.46608 
 C                     2.21887   3.03816   0.12583 
 C                     3.3399    2.58704   0.22856 
 C                    -4.91063  -0.07846  -0.29676 
 C                    -5.33063  -1.132    -0.72707 
 C                    -5.7047   -2.38635  -1.30689 
 C                    -6.79337  -3.14322  -0.83045 
 C                    -4.94714  -2.88551  -2.37824 
 C                    -7.11174  -4.3655   -1.41418 
 C                    -5.26954  -4.11024  -2.95614 
 H                    -4.10797  -2.29057  -2.74235 
 C                    -6.34966  -4.85077  -2.47734 
 H                    -7.95701  -4.94026  -1.03534 
 H                    -4.67195  -4.48789  -3.78709 
 H                    -6.60276  -5.81002  -2.93042 
 C                     4.58781   1.93496   0.48123 
 C                     4.58695   0.80817   1.31976 
 C                     5.80909   2.38699  -0.05385 
 C                     5.78282   0.17377   1.64144 
 H                     3.63108   0.45626   1.71251 
 C                     6.99931   1.73468   0.25516 
 C                     6.98863   0.63311   1.1107 
 H                     5.77316  -0.68939   2.30941 
 H                     7.93788   2.09604  -0.16533 
 H                     7.92621   0.13434   1.36101 
 C                     5.81793   3.58743  -0.96365 
 F                     7.04845   3.88023  -1.38932 
 F                     5.34163   4.67847  -0.35657 
 F                     5.06481   3.39703  -2.05406 
 C                    -7.60803  -2.61721   0.322 
 F                    -8.59761  -3.44864   0.65469 
 F                    -8.16696  -1.43528   0.04204 
 F                    -6.86308  -2.43761   1.41879 
 
 ITRead=  0  0  0  0  0  0  0  0  0  0  0  0  0  0  0  0  0  0  0  0
 ITRead=  0  0  0  0  0  0  0  0  0  0  0  0  0  0  0  0  0  0  0  0
 ITRead=  0  0  0  0  0  0  0  0  0  0  0  0  0  0  0  0  0  0  0  0
 ITRead=  0  0  0  0  0  0  0  0  0  0  0  0  0  0  0  0  0  0  0  0
 ITRead=  0  0  0  0  0  0  0  0  0  0  0  0  0  0  0  0  0  0  0  0
 ITRead=  0  0  0  0  0  0  0  0  0  0  0  0  0  0  0  0  0
 MicOpt= -1 -1 -1 -1 -1 -1 -1 -1 -1 -1 -1 -1 -1 -1 -1 -1 -1 -1 -1 -1
 MicOpt= -1 -1 -1 -1 -1 -1 -1 -1 -1 -1 -1 -1 -1 -1 -1 -1 -1 -1 -1 -1
 MicOpt= -1 -1 -1 -1 -1 -1 -1 -1 -1 -1 -1 -1 -1 -1 -1 -1 -1 -1 -1 -1
 MicOpt= -1 -1 -1 -1 -1 -1 -1 -1 -1 -1 -1 -1 -1 -1 -1 -1 -1 -1 -1 -1
 MicOpt= -1 -1 -1 -1 -1 -1 -1 -1 -1 -1 -1 -1 -1 -1 -1 -1 -1 -1 -1 -1
 MicOpt= -1 -1 -1 -1 -1 -1 -1 -1 -1 -1 -1 -1 -1 -1 -1 -1 -1
 NAtoms=    117 NQM=      117 NQMF=       0 NMMI=      0 NMMIF=      0
                NMic=       0 NMicF=      0.
                    Isotopes and Nuclear Properties:
 (Nuclear quadrupole moments (NQMom) in fm**2, nuclear magnetic moments (NMagM)
  in nuclear magnetons)

  Atom         1           2           3           4           5           6           7           8           9          10
 IAtWgt=          12          12          12          12          12          14           1          12          12          12
 AtmWgt=  12.0000000  12.0000000  12.0000000  12.0000000  12.0000000  14.0030740   1.0078250  12.0000000  12.0000000  12.0000000
 NucSpn=           0           0           0           0           0           2           1           0           0           0
 AtZEff=  -0.0000000  -0.0000000  -0.0000000  -0.0000000  -0.0000000  -0.0000000  -0.0000000  -0.0000000  -0.0000000  -0.0000000
 NQMom=    0.0000000   0.0000000   0.0000000   0.0000000   0.0000000   2.0440000   0.0000000   0.0000000   0.0000000   0.0000000
 NMagM=    0.0000000   0.0000000   0.0000000   0.0000000   0.0000000   0.4037610   2.7928460   0.0000000   0.0000000   0.0000000
 AtZNuc=   6.0000000   6.0000000   6.0000000   6.0000000   6.0000000   7.0000000   1.0000000   6.0000000   6.0000000   6.0000000

  Atom        11          12          13          14          15          16          17          18          19          20
 IAtWgt=          12          12           1           1           1          12          12          12          12          12
 AtmWgt=  12.0000000  12.0000000   1.0078250   1.0078250   1.0078250  12.0000000  12.0000000  12.0000000  12.0000000  12.0000000
 NucSpn=           0           0           1           1           1           0           0           0           0           0
 AtZEff=  -0.0000000  -0.0000000  -0.0000000  -0.0000000  -0.0000000  -0.0000000  -0.0000000  -0.0000000  -0.0000000  -0.0000000
 NQMom=    0.0000000   0.0000000   0.0000000   0.0000000   0.0000000   0.0000000   0.0000000   0.0000000   0.0000000   0.0000000
 NMagM=    0.0000000   0.0000000   2.7928460   2.7928460   2.7928460   0.0000000   0.0000000   0.0000000   0.0000000   0.0000000
 AtZNuc=   6.0000000   6.0000000   1.0000000   1.0000000   1.0000000   6.0000000   6.0000000   6.0000000   6.0000000   6.0000000

  Atom        21          22          23          24          25          26          27          28          29          30
 IAtWgt=           1          12           1          12           1           1           1          19          12           1
 AtmWgt=   1.0078250  12.0000000   1.0078250  12.0000000   1.0078250   1.0078250   1.0078250  18.9984033  12.0000000   1.0078250
 NucSpn=           1           0           1           0           1           1           1           1           0           1
 AtZEff=  -0.0000000  -0.0000000  -0.0000000  -0.0000000  -0.0000000  -0.0000000  -0.0000000  -0.0000000  -0.0000000  -0.0000000
 NQMom=    0.0000000   0.0000000   0.0000000   0.0000000   0.0000000   0.0000000   0.0000000   0.0000000   0.0000000   0.0000000
 NMagM=    2.7928460   0.0000000   2.7928460   0.0000000   2.7928460   2.7928460   2.7928460   2.6288670   0.0000000   2.7928460
 AtZNuc=   1.0000000   6.0000000   1.0000000   6.0000000   1.0000000   1.0000000   1.0000000   9.0000000   6.0000000   1.0000000

  Atom        31          32          33          34          35          36          37          38          39          40
 IAtWgt=           1           1          12          12          12           1           1          12           1           1
 AtmWgt=   1.0078250   1.0078250  12.0000000  12.0000000  12.0000000   1.0078250   1.0078250  12.0000000   1.0078250   1.0078250
 NucSpn=           1           1           0           0           0           1           1           0           1           1
 AtZEff=  -0.0000000  -0.0000000  -0.0000000  -0.0000000  -0.0000000  -0.0000000  -0.0000000  -0.0000000  -0.0000000  -0.0000000
 NQMom=    0.0000000   0.0000000   0.0000000   0.0000000   0.0000000   0.0000000   0.0000000   0.0000000   0.0000000   0.0000000
 NMagM=    2.7928460   2.7928460   0.0000000   0.0000000   0.0000000   2.7928460   2.7928460   0.0000000   2.7928460   2.7928460
 AtZNuc=   1.0000000   1.0000000   6.0000000   6.0000000   6.0000000   1.0000000   1.0000000   6.0000000   1.0000000   1.0000000

  Atom        41          42          43          44          45          46          47          48          49          50
 IAtWgt=           1           1           1           1          14          16         127           1          12          12
 AtmWgt=   1.0078250   1.0078250   1.0078250   1.0078250  14.0030740  15.9949146 126.9004000   1.0078250  12.0000000  12.0000000
 NucSpn=           1           1           1           1           2           0           5           1           0           0
 AtZEff=  -0.0000000  -0.0000000  -0.0000000  -0.0000000  -0.0000000  -0.0000000  -0.0000000  -0.0000000  -0.0000000  -0.0000000
 NQMom=    0.0000000   0.0000000   0.0000000   0.0000000   2.0440000   0.0000000 -71.0000000   0.0000000   0.0000000   0.0000000
 NMagM=    2.7928460   2.7928460   2.7928460   2.7928460   0.4037610   0.0000000   2.8132800   2.7928460   0.0000000   0.0000000
 AtZNuc=   1.0000000   1.0000000   1.0000000   1.0000000   7.0000000   8.0000000  53.0000000   1.0000000   6.0000000   6.0000000

  Atom        51          52          53          54          55          56          57          58          59          60
 IAtWgt=          12          12          12          12           1           1          12          12           1           1
 AtmWgt=  12.0000000  12.0000000  12.0000000  12.0000000   1.0078250   1.0078250  12.0000000  12.0000000   1.0078250   1.0078250
 NucSpn=           0           0           0           0           1           1           0           0           1           1
 AtZEff=  -0.0000000  -0.0000000  -0.0000000  -0.0000000  -0.0000000  -0.0000000  -0.0000000  -0.0000000  -0.0000000  -0.0000000
 NQMom=    0.0000000   0.0000000   0.0000000   0.0000000   0.0000000   0.0000000   0.0000000   0.0000000   0.0000000   0.0000000
 NMagM=    0.0000000   0.0000000   0.0000000   0.0000000   2.7928460   2.7928460   0.0000000   0.0000000   2.7928460   2.7928460
 AtZNuc=   6.0000000   6.0000000   6.0000000   6.0000000   1.0000000   1.0000000   6.0000000   6.0000000   1.0000000   1.0000000

  Atom        61          62          63          64          65          66          67          68          69          70
 IAtWgt=          12          12           1          12          12          12          12          12          12          12
 AtmWgt=  12.0000000  12.0000000   1.0078250  12.0000000  12.0000000  12.0000000  12.0000000  12.0000000  12.0000000  12.0000000
 NucSpn=           0           0           1           0           0           0           0           0           0           0
 AtZEff=  -0.0000000  -0.0000000  -0.0000000  -0.0000000  -0.0000000  -0.0000000  -0.0000000  -0.0000000  -0.0000000  -0.0000000
 NQMom=    0.0000000   0.0000000   0.0000000   0.0000000   0.0000000   0.0000000   0.0000000   0.0000000   0.0000000   0.0000000
 NMagM=    0.0000000   0.0000000   2.7928460   0.0000000   0.0000000   0.0000000   0.0000000   0.0000000   0.0000000   0.0000000
 AtZNuc=   6.0000000   6.0000000   1.0000000   6.0000000   6.0000000   6.0000000   6.0000000   6.0000000   6.0000000   6.0000000

  Atom        71          72          73          74          75          76          77          78          79          80
 IAtWgt=          12          12           1           1          12           1           1           1          32          16
 AtmWgt=  12.0000000  12.0000000   1.0078250   1.0078250  12.0000000   1.0078250   1.0078250   1.0078250  31.9720718  15.9949146
 NucSpn=           0           0           1           1           0           1           1           1           0           0
 AtZEff=  -0.0000000  -0.0000000  -0.0000000  -0.0000000  -0.0000000  -0.0000000  -0.0000000  -0.0000000  -0.0000000  -0.0000000
 NQMom=    0.0000000   0.0000000   0.0000000   0.0000000   0.0000000   0.0000000   0.0000000   0.0000000   0.0000000   0.0000000
 NMagM=    0.0000000   0.0000000   2.7928460   2.7928460   0.0000000   2.7928460   2.7928460   2.7928460   0.0000000   0.0000000
 AtZNuc=   6.0000000   6.0000000   1.0000000   1.0000000   6.0000000   1.0000000   1.0000000   1.0000000  16.0000000   8.0000000

  Atom        81          82          83          84          85          86          87          88          89          90
 IAtWgt=          16          32          16          16          14          12          12          12          12          12
 AtmWgt=  15.9949146  31.9720718  15.9949146  15.9949146  14.0030740  12.0000000  12.0000000  12.0000000  12.0000000  12.0000000
 NucSpn=           0           0           0           0           2           0           0           0           0           0
 AtZEff=  -0.0000000  -0.0000000  -0.0000000  -0.0000000  -0.0000000  -0.0000000  -0.0000000  -0.0000000  -0.0000000  -0.0000000
 NQMom=    0.0000000   0.0000000   0.0000000   0.0000000   2.0440000   0.0000000   0.0000000   0.0000000   0.0000000   0.0000000
 NMagM=    0.0000000   0.0000000   0.0000000   0.0000000   0.4037610   0.0000000   0.0000000   0.0000000   0.0000000   0.0000000
 AtZNuc=   8.0000000  16.0000000   8.0000000   8.0000000   7.0000000   6.0000000   6.0000000   6.0000000   6.0000000   6.0000000

  Atom        91          92          93          94          95          96          97          98          99         100
 IAtWgt=          12          12          12          12           1          12           1           1           1          12
 AtmWgt=  12.0000000  12.0000000  12.0000000  12.0000000   1.0078250  12.0000000   1.0078250   1.0078250   1.0078250  12.0000000
 NucSpn=           0           0           0           0           1           0           1           1           1           0
 AtZEff=  -0.0000000  -0.0000000  -0.0000000  -0.0000000  -0.0000000  -0.0000000  -0.0000000  -0.0000000  -0.0000000  -0.0000000
 NQMom=    0.0000000   0.0000000   0.0000000   0.0000000   0.0000000   0.0000000   0.0000000   0.0000000   0.0000000   0.0000000
 NMagM=    0.0000000   0.0000000   0.0000000   0.0000000   2.7928460   0.0000000   2.7928460   2.7928460   2.7928460   0.0000000
 AtZNuc=   6.0000000   6.0000000   6.0000000   6.0000000   1.0000000   6.0000000   1.0000000   1.0000000   1.0000000   6.0000000

  Atom       101         102         103         104         105         106         107         108         109         110
 IAtWgt=          12          12          12           1          12          12           1           1           1          12
 AtmWgt=  12.0000000  12.0000000  12.0000000   1.0078250  12.0000000  12.0000000   1.0078250   1.0078250   1.0078250  12.0000000
 NucSpn=           0           0           0           1           0           0           1           1           1           0
 AtZEff=  -0.0000000  -0.0000000  -0.0000000  -0.0000000  -0.0000000  -0.0000000  -0.0000000  -0.0000000  -0.0000000  -0.0000000
 NQMom=    0.0000000   0.0000000   0.0000000   0.0000000   0.0000000   0.0000000   0.0000000   0.0000000   0.0000000   0.0000000
 NMagM=    0.0000000   0.0000000   0.0000000   2.7928460   0.0000000   0.0000000   2.7928460   2.7928460   2.7928460   0.0000000
 AtZNuc=   6.0000000   6.0000000   6.0000000   1.0000000   6.0000000   6.0000000   1.0000000   1.0000000   1.0000000   6.0000000

  Atom       111         112         113         114         115         116         117
 IAtWgt=          19          19          19          12          19          19          19
 AtmWgt=  18.9984033  18.9984033  18.9984033  12.0000000  18.9984033  18.9984033  18.9984033
 NucSpn=           1           1           1           0           1           1           1
 AtZEff=  -0.0000000  -0.0000000  -0.0000000  -0.0000000  -0.0000000  -0.0000000  -0.0000000
 NQMom=    0.0000000   0.0000000   0.0000000   0.0000000   0.0000000   0.0000000   0.0000000
 NMagM=    2.6288670   2.6288670   2.6288670   0.0000000   2.6288670   2.6288670   2.6288670
 AtZNuc=   9.0000000   9.0000000   9.0000000   6.0000000   9.0000000   9.0000000   9.0000000
 Leave Link  101 at Sun Jan 26 08:25:37 2025, MaxMem=  7247757312 cpu:               2.0 elap:               0.1
 (Enter /cm/shared/apps/spack/cpu/opt/spack/linux-centos8-zen/gcc-8.3.1/gaussian-16.C.01-po5bqktfeugvmjyga3v7eigbecnokxng/g16/l202.exe)
 Symmetry turned off by external request.
 Stoichiometry    C60H39F7IN3O5S2
 Framework group  C1[X(C60H39F7IN3O5S2)]
 Deg. of freedom   345
 Full point group                 C1      NOp   1
                          Input orientation:                          
 ---------------------------------------------------------------------
 Center     Atomic      Atomic             Coordinates (Angstroms)
 Number     Number       Type             X           Y           Z
 ---------------------------------------------------------------------
      1          6           0        1.971403   -1.713408   -0.237495
      2          6           0        0.534835   -1.780951   -0.574722
      3          6           0       -0.407512   -2.183836    0.385131
      4          6           0        0.088162   -2.600094    1.598279
      5          6           0        1.530172   -2.634843    1.820116
      6          7           0        2.409428   -2.153665    0.900909
      7          1           0       -0.606396   -2.933992    2.366540
      8          6           0        2.960521   -1.130028   -1.165129
      9          6           0        4.317026   -1.567823   -1.219911
     10          6           0        5.240869   -0.818778   -1.950189
     11          6           0        3.540755    0.755390   -2.631640
     12          6           0        4.864635    0.338165   -2.636109
     13          1           0        6.272233   -1.169094   -2.009448
     14          1           0        5.610962    0.909120   -3.190794
     15          1           0        3.202071    1.652333   -3.150021
     16          6           0        2.619129    0.014175   -1.908339
     17          6           0        4.792051   -2.842274   -0.612366
     18          6           0        5.995892   -2.884186    0.103614
     19          6           0        4.089013   -4.036516   -0.818311
     20          6           0        6.465747   -4.087134    0.633694
     21          1           0        6.565436   -1.965911    0.251020
     22          6           0        4.560156   -5.237605   -0.295600
     23          1           0        3.165939   -4.029193   -1.400924
     24          6           0        5.747878   -5.266662    0.439501
     25          1           0        7.401900   -4.100385    1.194966
     26          1           0        3.993859   -6.155186   -0.468518
     27          1           0        6.116021   -6.208642    0.850204
     28          9           0        1.365342    0.444885   -1.892086
     29          6           0       -1.869835   -2.271948    0.085298
     30          1           0       -2.112979   -1.780425   -0.862564
     31          1           0       -2.163223   -3.332972    0.044056
     32          1           0       -2.444133   -1.784000    0.885902
     33          6           0        1.298209   -3.657893    4.064398
     34          6           0        3.487963   -3.391415    3.057584
     35          6           0        1.592390   -5.158794    4.195832
     36          1           0        0.226854   -3.474102    3.969005
     37          1           0        1.674789   -3.133745    4.954925
     38          6           0        3.679088   -4.906153    3.232696
     39          1           0        4.014458   -3.030214    2.168812
     40          1           0        3.832871   -2.867109    3.960656
     41          1           0        1.197670   -5.686671    3.309072
     42          1           0        1.083449   -5.535861    5.091639
     43          1           0        3.357864   -5.419993    2.308722
     44          1           0        4.745798   -5.104510    3.397657
     45          7           0        2.049716   -3.134618    2.925121
     46          8           0        2.965829   -5.375249    4.342312
     47         53           0        0.559243   -5.249141   -0.422118
     48          1           0        0.208053   -1.516592   -1.579919
     49          6           0       -2.836363    6.888466   -0.990516
     50          6           0       -2.814731    5.611383   -0.482694
     51          6           0       -1.580572    4.938448   -0.258166
     52          6           0       -0.373161    5.609358   -0.603991
     53          6           0       -0.425041    6.935041   -1.118748
     54          6           0       -1.630519    7.563887   -1.303666
     55          1           0       -3.792777    7.385498   -1.159937
     56          1           0       -3.753652    5.104573   -0.259960
     57          6           0       -1.512909    3.605067    0.268503
     58          6           0        0.861720    4.938616   -0.452243
     59          1           0        0.513078    7.433812   -1.369990
     60          1           0       -1.665991    8.579087   -1.701888
     61          6           0        0.924332    3.639570    0.015906
     62          6           0       -0.287016    2.971733    0.387985
     63          1           0        1.786313    5.452702   -0.720729
     64          6           0       -2.798980    2.916212    0.626804
     65          6           0       -3.253307    1.814310   -0.077130
     66          6           0       -3.534846    3.393573    1.762411
     67          6           0       -4.450254    1.132559    0.315332
     68          6           0       -4.757567    2.752893    2.113117
     69          6           0       -3.079450    4.470272    2.574716
     70          6           0       -5.189055    1.627360    1.374527
     71          6           0       -5.507576    3.226673    3.225964
     72          6           0       -3.819281    4.900948    3.650221
     73          1           0       -2.129238    4.953187    2.346501
     74          1           0       -6.109927    1.117905    1.664545
     75          6           0       -5.051703    4.281581    3.975899
     76          1           0       -6.445952    2.726030    3.472420
     77          1           0       -3.451610    5.725836    4.262532
     78          1           0       -5.628854    4.639336    4.829951
     79         16           0       -0.316522    1.226641    0.805115
     80          8           0       -1.123895    1.094611    1.982871
     81          8           0        1.020351    0.712289    0.920106
     82         16           0       -2.154091    1.157702   -1.332859
     83          8           0       -1.749000    2.265888   -2.142131
     84          8           0       -2.779446    0.072868   -2.025680
     85          7           0       -0.973123    0.556737   -0.466078
     86          6           0        2.218869    3.038158    0.125831
     87          6           0        3.339896    2.587041    0.228558
     88          6           0       -4.910634   -0.078456   -0.296759
     89          6           0       -5.330627   -1.132002   -0.727065
     90          6           0       -5.704701   -2.386351   -1.306886
     91          6           0       -6.793365   -3.143215   -0.830454
     92          6           0       -4.947142   -2.885508   -2.378242
     93          6           0       -7.111744   -4.365501   -1.414182
     94          6           0       -5.269540   -4.110240   -2.956135
     95          1           0       -4.107974   -2.290572   -2.742353
     96          6           0       -6.349656   -4.850771   -2.477344
     97          1           0       -7.957013   -4.940259   -1.035343
     98          1           0       -4.671945   -4.487888   -3.787090
     99          1           0       -6.602761   -5.810016   -2.930417
    100          6           0        4.587810    1.934961    0.481226
    101          6           0        4.586954    0.808174    1.319761
    102          6           0        5.809088    2.386986   -0.053854
    103          6           0        5.782815    0.173769    1.641442
    104          1           0        3.631084    0.456264    1.712511
    105          6           0        6.999305    1.734680    0.255161
    106          6           0        6.988630    0.633112    1.110704
    107          1           0        5.773158   -0.689386    2.309412
    108          1           0        7.937879    2.096042   -0.165330
    109          1           0        7.926206    0.134343    1.361006
    110          6           0        5.817928    3.587434   -0.963651
    111          9           0        7.048445    3.880233   -1.389323
    112          9           0        5.341626    4.678465   -0.356566
    113          9           0        5.064813    3.397033   -2.054058
    114          6           0       -7.608028   -2.617208    0.322002
    115          9           0       -8.597606   -3.448637    0.654692
    116          9           0       -8.166956   -1.435276    0.042037
    117          9           0       -6.863077   -2.437614    1.418790
 ---------------------------------------------------------------------
 Rotational constants (GHZ):           0.0270058           0.0213096           0.0141602
 Leave Link  202 at Sun Jan 26 08:25:37 2025, MaxMem=  7247757312 cpu:               2.6 elap:               0.1
 (Enter /cm/shared/apps/spack/cpu/opt/spack/linux-centos8-zen/gcc-8.3.1/gaussian-16.C.01-po5bqktfeugvmjyga3v7eigbecnokxng/g16/l301.exe)
 Standard basis: def2TZVPP (5D, 7F)
 Ernie: Thresh=  0.10000D-02 Tol=  0.10000D-05 Strict=F.
  3005 basis functions,  4735 primitive gaussians,  3440 cartesian basis functions
   290 alpha electrons      290 beta electrons
       nuclear repulsion energy     15232.4524141045 Hartrees.
 IExCor=  402 DFT=T Ex+Corr=B3LYP ExCW=0 ScaHFX=  0.200000
 ScaDFX=  0.800000  0.720000  1.000000  0.810000 ScalE2=  1.000000  1.000000
 IRadAn=      5 IRanWt=     -1 IRanGd=            0 ICorTp=0 IEmpDi=141
 NAtoms=  117 NActive=  117 NUniq=  117 SFac= 1.00D+00 NAtFMM=   60 NAOKFM=T Big=T
 Integral buffers will be    131072 words long.
 Raffenetti 2 integral format.
 Two-electron integral symmetry is turned off.
 R6Disp:  Grimme-D3(BJ) Dispersion energy=       -0.3843487344 Hartrees.
 Nuclear repulsion after empirical dispersion term =    15232.0680653701 Hartrees.
 ------------------------------------------------------------------------------
 Polarizable Continuum Model (PCM)
 =================================
 Model                : PCM.
 Atomic radii         : SMD-Coulomb.
 Polarization charges : Total charges.
 Charge compensation  : None.
 Solution method      : On-the-fly selection.
 Cavity type          : VdW (van der Waals Surface) (Alpha=1.000).
 Cavity algorithm     : GePol (No added spheres)
                        Default sphere list used, NSphG=  117.
                        Lebedev-Laikov grids with approx.  5.0 points / Ang**2.
                        Smoothing algorithm: York/Karplus (Gamma=1.0000).
                        Polarization charges: spherical gaussians, with
                                              point-specific exponents (IZeta= 3).
                        Self-potential: point-specific (ISelfS= 7).
                        Self-field    : sphere-specific E.n sum rule (ISelfD= 2).
 Solvent              : PropylEthanoate, Eps=   5.520500 Eps(inf)=   1.916010
 ------------------------------------------------------------------------------
 GePol: Number of generator spheres                  =     117
 GePol: Total number of spheres                      =     117
 GePol: Number of exposed spheres                    =     117 (100.00%)
 GePol: Number of points                             =    8521
 GePol: Average weight of points                     =       0.11
 GePol: Minimum weight of points                     =   0.39D-11
 GePol: Maximum weight of points                     =    0.21501
 GePol: Number of points with low weight             =     550
 GePol: Fraction of low-weight points (<1% of avg)   =       6.45%
 GePol: Cavity surface area                          =    958.317 Ang**2
 GePol: Cavity volume                                =   1079.882 Ang**3
 ------------------------------------------------------------------------------
 Atomic radii for non-electrostatic terms: SMD-CDS.
 ------------------------------------------------------------------------------
 PCM non-electrostatic energy =        -0.0217468825 Hartrees.
 Nuclear repulsion after PCM non-electrostatic terms =    15232.0463184876 Hartrees.
 Leave Link  301 at Sun Jan 26 08:25:37 2025, MaxMem=  7247757312 cpu:               4.1 elap:               0.2
 (Enter /cm/shared/apps/spack/cpu/opt/spack/linux-centos8-zen/gcc-8.3.1/gaussian-16.C.01-po5bqktfeugvmjyga3v7eigbecnokxng/g16/l302.exe)
 NPDir=0 NMtPBC=     1 NCelOv=     1 NCel=       1 NClECP=     1 NCelD=      1
         NCelK=      1 NCelE2=     1 NClLst=     1 CellRange=     0.0.
 One-electron integrals computed using PRISM.
   1 Symmetry operations used in ECPInt.
 ECPInt:  NShTT=  608856 NPrTT= 1802125 LenC2=  371071 LenP2D=  701284.
 LDataN:  DoStor=T MaxTD1= 7 Len=  274
 Number of processors reduced to  15 by ecpmxn.
 NBasis=  3005 RedAO= T EigKep=  1.98D-06  NBF=  3005
 NBsUse=  3005 1.00D-06 EigRej= -1.00D+00 NBFU=  3005
 Precomputing XC quadrature grid using
 IXCGrd= 4 IRadAn=           5 IRanWt=          -1 IRanGd=           0 AccXCQ= 0.00D+00.
 Defaulting to unpruned grid for atomic number  53.
 Generated NRdTot=       0 NPtTot=           0 NUsed=           0 NTot=          32
 NSgBfM=  2876  2876  2876  2876  2876 MxSgAt=   117 MxSgA2=   117.
 Leave Link  302 at Sun Jan 26 08:25:56 2025, MaxMem=  7247757312 cpu:             568.3 elap:              18.7
 (Enter /cm/shared/apps/spack/cpu/opt/spack/linux-centos8-zen/gcc-8.3.1/gaussian-16.C.01-po5bqktfeugvmjyga3v7eigbecnokxng/g16/l303.exe)
 DipDrv:  MaxL=1.
 Leave Link  303 at Sun Jan 26 08:25:58 2025, MaxMem=  7247757312 cpu:              28.4 elap:               1.3
 (Enter /cm/shared/apps/spack/cpu/opt/spack/linux-centos8-zen/gcc-8.3.1/gaussian-16.C.01-po5bqktfeugvmjyga3v7eigbecnokxng/g16/l401.exe)
 ExpMin= 7.49D-02 ExpMax= 6.07D+04 ExpMxC= 2.07D+03 IAcc=3 IRadAn=         5 AccDes= 0.00D+00
 Harris functional with IExCor=  402 and IRadAn=       5 diagonalized for initial guess.
 HarFok:  IExCor=  402 AccDes= 0.00D+00 IRadAn=         5 IDoV= 1 UseB2=F ITyADJ=14
 ICtDFT=  3500011 ScaDFX=  1.000000  1.000000  1.000000  1.000000
 Defaulting to unpruned grid for atomic number  53.
 FoFCou: FMM=F IPFlag=           0 FMFlag=      100000 FMFlg1=        2001
         NFxFlg=           0 DoJE=T BraDBF=F KetDBF=T FulRan=T
         wScrn=  0.000000 ICntrl=       500 IOpCl=  0 I1Cent=   200000004 NGrid=           0
         NMat0=    1 NMatS0=      1 NMatT0=    0 NMatD0=    1 NMtDS0=    0 NMtDT0=    0
 Symmetry not used in FoFCou.
 Harris En= -4644.97661154064    
 JPrj=0 DoOrth=F DoCkMO=F.
 Leave Link  401 at Sun Jan 26 08:26:20 2025, MaxMem=  7247757312 cpu:             697.9 elap:              22.0
 (Enter /cm/shared/apps/spack/cpu/opt/spack/linux-centos8-zen/gcc-8.3.1/gaussian-16.C.01-po5bqktfeugvmjyga3v7eigbecnokxng/g16/l502.exe)
 Two-electron integral symmetry not used.
 Closed shell SCF:
 Using DIIS extrapolation, IDIIS=  1040.
 NGot=  7247757312 LenX=  7223956348 LenY=  7212119308
 Requested convergence on RMS density matrix=1.00D-08 within 128 cycles.
 Requested convergence on MAX density matrix=1.00D-06.
 Requested convergence on             energy=1.00D-06.
 No special actions if energy rises.
 Fock matrices will be formed incrementally for  20 cycles.

 Cycle   1  Pass 1  IDiag  1:
 FoFJK:  IHMeth= 1 ICntrl=       0 DoSepK=F KAlg= 0 I1Cent=           0 FoldK=F
 IRaf= 560000000 NMat=       1 IRICut=       1 DoRegI=T DoRafI=F ISym2E= 0 IDoP0=0 IntGTp=1.
 FoFCou: FMM=T IPFlag=           0 FMFlag=      100000 FMFlg1=        2001
         NFxFlg=           0 DoJE=F BraDBF=F KetDBF=F FulRan=T
         wScrn=  0.000000 ICntrl=         0 IOpCl=  0 I1Cent=           0 NGrid=           0
         NMat0=    1 NMatS0=      1 NMatT0=    0 NMatD0=    1 NMtDS0=    0 NMtDT0=    0
 Symmetry not used in FoFCou.
 FMM levels:  10  Number of levels for PrismC:   9
 Defaulting to unpruned grid for atomic number  53.
 Defaulting to unpruned grid for atomic number  53.
 Defaulting to unpruned grid for atomic number  53.
 Defaulting to unpruned grid for atomic number  53.
 Defaulting to unpruned grid for atomic number  53.
 Defaulting to unpruned grid for atomic number  53.
 Defaulting to unpruned grid for atomic number  53.
 Defaulting to unpruned grid for atomic number  53.
 Defaulting to unpruned grid for atomic number  53.
 Defaulting to unpruned grid for atomic number  53.
 Defaulting to unpruned grid for atomic number  53.
 Defaulting to unpruned grid for atomic number  53.
 Defaulting to unpruned grid for atomic number  53.
 Defaulting to unpruned grid for atomic number  53.
 Defaulting to unpruned grid for atomic number  53.
 Defaulting to unpruned grid for atomic number  53.
 Defaulting to unpruned grid for atomic number  53.
 Defaulting to unpruned grid for atomic number  53.
 Defaulting to unpruned grid for atomic number  53.
 Defaulting to unpruned grid for atomic number  53.
 Defaulting to unpruned grid for atomic number  53.
 Defaulting to unpruned grid for atomic number  53.
 Defaulting to unpruned grid for atomic number  53.
 Defaulting to unpruned grid for atomic number  53.
 Defaulting to unpruned grid for atomic number  53.
 Defaulting to unpruned grid for atomic number  53.
 Defaulting to unpruned grid for atomic number  53.
 Defaulting to unpruned grid for atomic number  53.
 Defaulting to unpruned grid for atomic number  53.
 Defaulting to unpruned grid for atomic number  53.
 Defaulting to unpruned grid for atomic number  53.
 Defaulting to unpruned grid for atomic number  53.
 Inv3:  Mode=1 IEnd=   217822323.
 Iteration    1 A*A^-1 deviation from unit magnitude is 4.66D-15 for   8434.
 Iteration    1 A*A^-1 deviation from orthogonality  is 2.89D-15 for   6940   6899.
 Iteration    1 A^-1*A deviation from unit magnitude is 4.11D-15 for   8057.
 Iteration    1 A^-1*A deviation from orthogonality  is 1.04D-11 for   3722   3649.
 E= -4642.86016122617    
 DIIS: error= 1.05D-02 at cycle   1 NSaved=   1.
 NSaved= 1 IEnMin= 1 EnMin= -4642.86016122617     IErMin= 1 ErrMin= 1.05D-02
 ErrMax= 1.05D-02  0.00D+00 EMaxC= 1.00D-01 BMatC= 2.46D+00 BMatP= 2.46D+00
 IDIUse=3 WtCom= 8.95D-01 WtEn= 1.05D-01
 Coeff-Com:  0.100D+01
 Coeff-En:   0.100D+01
 Coeff:      0.100D+01
 Gap=     0.009 Goal=   None    Shift=    0.000
 GapD=    0.009 DampG=0.250 DampE=0.500 DampFc=0.2500 IDamp=-1.
 Damping current iteration by 2.50D-01
 RMSDP=3.61D-03 MaxDP=1.72D+00              OVMax= 5.23D-01

 Cycle   2  Pass 1  IDiag  1:
 RMSU=  8.86D-04    CP:  1.04D+00
 E= -4643.62637679533     Delta-E=       -0.766215569158 Rises=F Damp=T
 DIIS: error= 6.06D-03 at cycle   2 NSaved=   2.
 NSaved= 2 IEnMin= 2 EnMin= -4643.62637679533     IErMin= 2 ErrMin= 6.06D-03
 ErrMax= 6.06D-03  0.00D+00 EMaxC= 1.00D-01 BMatC= 5.52D-01 BMatP= 2.46D+00
 IDIUse=3 WtCom= 9.39D-01 WtEn= 6.06D-02
 Coeff-Com: -0.633D+00 0.163D+01
 Coeff-En:   0.000D+00 0.100D+01
 Coeff:     -0.595D+00 0.159D+01
 Gap=     0.011 Goal=   None    Shift=    0.000
 RMSDP=1.04D-03 MaxDP=2.08D-01 DE=-7.66D-01 OVMax= 7.80D-01

 Cycle   3  Pass 1  IDiag  1:
 RMSU=  1.04D-03    CP:  1.04D+00  9.20D-01
 E= -4644.30302416216     Delta-E=       -0.676647366836 Rises=F Damp=F
 DIIS: error= 6.06D-03 at cycle   3 NSaved=   3.
 NSaved= 3 IEnMin= 3 EnMin= -4644.30302416216     IErMin= 2 ErrMin= 6.06D-03
 ErrMax= 6.06D-03  0.00D+00 EMaxC= 1.00D-01 BMatC= 5.18D-01 BMatP= 5.52D-01
 IDIUse=3 WtCom= 9.39D-01 WtEn= 6.06D-02
 Coeff-Com: -0.488D+00 0.110D+01 0.383D+00
 Coeff-En:   0.000D+00 0.107D+00 0.893D+00
 Coeff:     -0.459D+00 0.104D+01 0.414D+00
 Gap=     0.017 Goal=   None    Shift=    0.000
 RMSDP=1.13D-03 MaxDP=3.60D-01 DE=-6.77D-01 OVMax= 6.50D-01

 Cycle   4  Pass 1  IDiag  1:
 RMSU=  6.76D-04    CP:  1.01D+00  9.47D-01  1.34D-01
 E= -4644.77225906767     Delta-E=       -0.469234905504 Rises=F Damp=F
 DIIS: error= 4.05D-03 at cycle   4 NSaved=   4.
 NSaved= 4 IEnMin= 4 EnMin= -4644.77225906767     IErMin= 4 ErrMin= 4.05D-03
 ErrMax= 4.05D-03  0.00D+00 EMaxC= 1.00D-01 BMatC= 1.57D-01 BMatP= 5.18D-01
 IDIUse=3 WtCom= 9.60D-01 WtEn= 4.05D-02
 Coeff-Com: -0.246D+00 0.529D+00 0.318D+00 0.399D+00
 Coeff-En:   0.000D+00 0.000D+00 0.272D+00 0.728D+00
 Coeff:     -0.236D+00 0.507D+00 0.316D+00 0.412D+00
 Gap=    -0.011 Goal=   None    Shift=    0.000
 RMSDP=5.28D-04 MaxDP=2.36D-01 DE=-4.69D-01 OVMax= 7.17D-01

 Cycle   5  Pass 1  IDiag  1:
 RMSU=  3.44D-04    CP:  1.01D+00  8.69D-01  3.38D-01  5.09D-01
 E= -4644.73484189196     Delta-E=        0.037417175710 Rises=F Damp=F
 DIIS: error= 3.53D-03 at cycle   5 NSaved=   5.
 NSaved= 5 IEnMin= 4 EnMin= -4644.77225906767     IErMin= 5 ErrMin= 3.53D-03
 ErrMax= 3.53D-03  0.00D+00 EMaxC= 1.00D-01 BMatC= 1.03D-01 BMatP= 1.57D-01
 IDIUse=3 WtCom= 9.65D-01 WtEn= 3.53D-02
 EnCoef did     5 forward-backward iterations
 Coeff-Com: -0.175D+00 0.342D+00 0.242D+00 0.322D+00 0.269D+00
 Coeff-En:   0.000D+00 0.000D+00 0.175D+00 0.521D+00 0.305D+00
 Coeff:     -0.169D+00 0.330D+00 0.239D+00 0.329D+00 0.271D+00
 Gap=    -0.007 Goal=   None    Shift=    0.000
 RMSDP=3.76D-04 MaxDP=1.74D-01 DE= 3.74D-02 OVMax= 8.50D-01

 Cycle   6  Pass 1  IDiag  1:
 RMSU=  2.30D-04    CP:  1.02D+00  9.68D-01  4.12D-01  5.76D-01  2.18D-01
 E= -4644.90400918167     Delta-E=       -0.169167289714 Rises=F Damp=F
 DIIS: error= 1.58D-03 at cycle   6 NSaved=   6.
 NSaved= 6 IEnMin= 6 EnMin= -4644.90400918167     IErMin= 6 ErrMin= 1.58D-03
 ErrMax= 1.58D-03  0.00D+00 EMaxC= 1.00D-01 BMatC= 3.90D-02 BMatP= 1.03D-01
 IDIUse=3 WtCom= 9.84D-01 WtEn= 1.58D-02
 Coeff-Com: -0.806D-01 0.145D+00 0.133D+00 0.131D+00 0.302D+00 0.370D+00
 Coeff-En:   0.000D+00 0.000D+00 0.000D+00 0.000D+00 0.265D+00 0.735D+00
 Coeff:     -0.793D-01 0.142D+00 0.131D+00 0.129D+00 0.301D+00 0.376D+00
 Gap=     0.016 Goal=   None    Shift=    0.000
 RMSDP=9.62D-05 MaxDP=1.86D-02 DE=-1.69D-01 OVMax= 7.21D-02

 Cycle   7  Pass 1  IDiag  1:
 RMSU=  8.60D-05    CP:  1.01D+00  9.38D-01  4.24D-01  5.81D-01  2.75D-01
                    CP:  8.95D-01
 E= -4644.93664520465     Delta-E=       -0.032636022981 Rises=F Damp=F
 DIIS: error= 1.04D-03 at cycle   7 NSaved=   7.
 NSaved= 7 IEnMin= 7 EnMin= -4644.93664520465     IErMin= 7 ErrMin= 1.04D-03
 ErrMax= 1.04D-03  0.00D+00 EMaxC= 1.00D-01 BMatC= 1.42D-02 BMatP= 3.90D-02
 IDIUse=3 WtCom= 9.90D-01 WtEn= 1.04D-02
 Coeff-Com: -0.176D-01 0.278D-01 0.439D-01-0.259D-01 0.249D+00 0.523D-01
 Coeff-Com:  0.670D+00
 Coeff-En:   0.000D+00 0.000D+00 0.000D+00 0.000D+00 0.144D+00 0.000D+00
 Coeff-En:   0.856D+00
 Coeff:     -0.174D-01 0.275D-01 0.435D-01-0.257D-01 0.248D+00 0.517D-01
 Coeff:      0.672D+00
 Gap=     0.017 Goal=   None    Shift=    0.000
 RMSDP=8.67D-05 MaxDP=2.68D-02 DE=-3.26D-02 OVMax= 6.00D-02

 Cycle   8  Pass 1  IDiag  1:
 RMSU=  5.65D-05    CP:  1.02D+00  9.43D-01  4.69D-01  5.31D-01  3.43D-01
                    CP:  9.52D-01  1.14D+00
 E= -4644.94983585075     Delta-E=       -0.013190646099 Rises=F Damp=F
 DIIS: error= 6.14D-04 at cycle   8 NSaved=   8.
 NSaved= 8 IEnMin= 8 EnMin= -4644.94983585075     IErMin= 8 ErrMin= 6.14D-04
 ErrMax= 6.14D-04  0.00D+00 EMaxC= 1.00D-01 BMatC= 5.97D-03 BMatP= 1.42D-02
 IDIUse=3 WtCom= 9.94D-01 WtEn= 6.14D-03
 Coeff-Com:  0.398D-02-0.316D-02-0.366D-02-0.319D-01 0.116D+00-0.315D+00
 Coeff-Com:  0.382D+00 0.851D+00
 Coeff-En:   0.000D+00 0.000D+00 0.000D+00 0.000D+00 0.455D-01 0.000D+00
 Coeff-En:   0.000D+00 0.954D+00
 Coeff:      0.395D-02-0.314D-02-0.364D-02-0.317D-01 0.116D+00-0.313D+00
 Coeff:      0.380D+00 0.852D+00
 Gap=     0.021 Goal=   None    Shift=    0.000
 RMSDP=7.26D-05 MaxDP=2.40D-02 DE=-1.32D-02 OVMax= 5.80D-02

 Cycle   9  Pass 1  IDiag  1:
 RMSU=  3.99D-05    CP:  1.01D+00  9.16D-01  4.68D-01  5.36D-01  4.26D-01
                    CP:  8.81D-01  1.60D+00  1.36D+00
 E= -4644.95836026443     Delta-E=       -0.008524413683 Rises=F Damp=F
 DIIS: error= 2.50D-04 at cycle   9 NSaved=   9.
 NSaved= 9 IEnMin= 9 EnMin= -4644.95836026443     IErMin= 9 ErrMin= 2.50D-04
 ErrMax= 2.50D-04  0.00D+00 EMaxC= 1.00D-01 BMatC= 8.46D-04 BMatP= 5.97D-03
 IDIUse=3 WtCom= 9.98D-01 WtEn= 2.50D-03
 Coeff-Com:  0.284D-02-0.148D-02-0.943D-02-0.793D-02 0.342D-01-0.234D+00
 Coeff-Com:  0.843D-01 0.563D+00 0.568D+00
 Coeff-En:   0.000D+00 0.000D+00 0.000D+00 0.000D+00 0.000D+00 0.000D+00
 Coeff-En:   0.000D+00 0.000D+00 0.100D+01
 Coeff:      0.283D-02-0.148D-02-0.941D-02-0.791D-02 0.341D-01-0.233D+00
 Coeff:      0.841D-01 0.562D+00 0.569D+00
 Gap=     0.022 Goal=   None    Shift=    0.000
 RMSDP=3.46D-05 MaxDP=7.82D-03 DE=-8.52D-03 OVMax= 3.16D-02

 Cycle  10  Pass 1  IDiag  1:
 RMSU=  2.77D-05    CP:  1.01D+00  9.22D-01  4.65D-01  5.44D-01  4.21D-01
                    CP:  8.67D-01  1.59D+00  1.69D+00  1.02D+00
 E= -4644.95919425655     Delta-E=       -0.000833992119 Rises=F Damp=F
 DIIS: error= 2.19D-04 at cycle  10 NSaved=  10.
 NSaved=10 IEnMin=10 EnMin= -4644.95919425655     IErMin=10 ErrMin= 2.19D-04
 ErrMax= 2.19D-04  0.00D+00 EMaxC= 1.00D-01 BMatC= 4.62D-04 BMatP= 8.46D-04
 IDIUse=3 WtCom= 9.98D-01 WtEn= 2.19D-03
 Coeff-Com: -0.249D-02 0.465D-02-0.117D-02 0.598D-02 0.327D-02-0.491D-01
 Coeff-Com: -0.250D-01 0.111D+00 0.455D+00 0.498D+00
 Coeff-En:   0.000D+00 0.000D+00 0.000D+00 0.000D+00 0.000D+00 0.000D+00
 Coeff-En:   0.000D+00 0.000D+00 0.265D+00 0.735D+00
 Coeff:     -0.248D-02 0.464D-02-0.117D-02 0.596D-02 0.326D-02-0.490D-01
 Coeff:     -0.249D-01 0.111D+00 0.455D+00 0.498D+00
 Gap=     0.023 Goal=   None    Shift=    0.000
 RMSDP=1.68D-05 MaxDP=5.03D-03 DE=-8.34D-04 OVMax= 1.33D-02

 Cycle  11  Pass 1  IDiag  1:
 RMSU=  1.26D-05    CP:  1.01D+00  9.21D-01  4.66D-01  5.42D-01  4.24D-01
                    CP:  8.72D-01  1.63D+00  1.70D+00  1.27D+00  9.57D-01
 E= -4644.95970424209     Delta-E=       -0.000509985533 Rises=F Damp=F
 DIIS: error= 7.34D-05 at cycle  11 NSaved=  11.
 NSaved=11 IEnMin=11 EnMin= -4644.95970424209     IErMin=11 ErrMin= 7.34D-05
 ErrMax= 7.34D-05  0.00D+00 EMaxC= 1.00D-01 BMatC= 4.70D-05 BMatP= 4.62D-04
 IDIUse=1 WtCom= 1.00D+00 WtEn= 0.00D+00
 Coeff-Com: -0.199D-02 0.274D-02 0.129D-02 0.901D-03-0.161D-03 0.123D-01
 Coeff-Com:  0.105D-02-0.428D-01 0.177D+00 0.247D+00 0.603D+00
 Coeff:     -0.199D-02 0.274D-02 0.129D-02 0.901D-03-0.161D-03 0.123D-01
 Coeff:      0.105D-02-0.428D-01 0.177D+00 0.247D+00 0.603D+00
 Gap=     0.023 Goal=   None    Shift=    0.000
 RMSDP=1.09D-05 MaxDP=2.83D-03 DE=-5.10D-04 OVMax= 1.90D-02

 Cycle  12  Pass 1  IDiag  1:
 RMSU=  6.69D-06    CP:  1.01D+00  9.24D-01  4.68D-01  5.41D-01  4.15D-01
                    CP:  8.82D-01  1.60D+00  1.72D+00  1.35D+00  1.11D+00
                    CP:  1.28D+00
 E= -4644.95981183174     Delta-E=       -0.000107589658 Rises=F Damp=F
 DIIS: error= 5.55D-05 at cycle  12 NSaved=  12.
 NSaved=12 IEnMin=12 EnMin= -4644.95981183174     IErMin=12 ErrMin= 5.55D-05
 ErrMax= 5.55D-05  0.00D+00 EMaxC= 1.00D-01 BMatC= 1.93D-05 BMatP= 4.70D-05
 IDIUse=1 WtCom= 1.00D+00 WtEn= 0.00D+00
 Coeff-Com: -0.334D-03 0.333D-03 0.521D-03-0.206D-02-0.698D-03 0.756D-02
 Coeff-Com:  0.189D-01-0.519D-01 0.168D-01-0.364D-01 0.336D+00 0.711D+00
 Coeff:     -0.334D-03 0.333D-03 0.521D-03-0.206D-02-0.698D-03 0.756D-02
 Coeff:      0.189D-01-0.519D-01 0.168D-01-0.364D-01 0.336D+00 0.711D+00
 Gap=     0.023 Goal=   None    Shift=    0.000
 RMSDP=9.62D-06 MaxDP=3.50D-03 DE=-1.08D-04 OVMax= 1.79D-02

 Cycle  13  Pass 1  IDiag  1:
 RMSU=  4.84D-06    CP:  1.01D+00  9.23D-01  4.67D-01  5.42D-01  4.10D-01
                    CP:  8.84D-01  1.62D+00  1.72D+00  1.44D+00  1.22D+00
                    CP:  1.72D+00  1.46D+00
 E= -4644.95988635117     Delta-E=       -0.000074519427 Rises=F Damp=F
 DIIS: error= 4.35D-05 at cycle  13 NSaved=  13.
 NSaved=13 IEnMin=13 EnMin= -4644.95988635117     IErMin=13 ErrMin= 4.35D-05
 ErrMax= 4.35D-05  0.00D+00 EMaxC= 1.00D-01 BMatC= 9.20D-06 BMatP= 1.93D-05
 IDIUse=1 WtCom= 1.00D+00 WtEn= 0.00D+00
 Coeff-Com:  0.222D-03-0.367D-03 0.242D-03-0.123D-02-0.606D-03-0.467D-03
 Coeff-Com:  0.179D-01-0.357D-01 0.174D-02-0.845D-01 0.980D-01 0.401D+00
 Coeff-Com:  0.603D+00
 Coeff:      0.222D-03-0.367D-03 0.242D-03-0.123D-02-0.606D-03-0.467D-03
 Coeff:      0.179D-01-0.357D-01 0.174D-02-0.845D-01 0.980D-01 0.401D+00
 Coeff:      0.603D+00
 Gap=     0.023 Goal=   None    Shift=    0.000
 RMSDP=6.60D-06 MaxDP=2.45D-03 DE=-7.45D-05 OVMax= 1.28D-02

 Cycle  14  Pass 1  IDiag  1:
 RMSU=  1.65D-06    CP:  1.01D+00  9.23D-01  4.68D-01  5.42D-01  4.07D-01
                    CP:  8.86D-01  1.62D+00  1.73D+00  1.50D+00  1.29D+00
                    CP:  2.02D+00  1.94D+00  1.48D+00
 E= -4644.95992395204     Delta-E=       -0.000037600872 Rises=F Damp=F
 DIIS: error= 3.37D-05 at cycle  14 NSaved=  14.
 NSaved=14 IEnMin=14 EnMin= -4644.95992395204     IErMin=14 ErrMin= 3.37D-05
 ErrMax= 3.37D-05  0.00D+00 EMaxC= 1.00D-01 BMatC= 5.66D-06 BMatP= 9.20D-06
 IDIUse=1 WtCom= 1.00D+00 WtEn= 0.00D+00
 Coeff-Com:  0.391D-03-0.477D-03 0.236D-03 0.103D-02-0.706D-03-0.771D-02
 Coeff-Com:  0.819D-02-0.126D-01 0.187D-01-0.604D-01-0.141D+00-0.203D+00
 Coeff-Com:  0.376D+00 0.102D+01
 Coeff:      0.391D-03-0.477D-03 0.236D-03 0.103D-02-0.706D-03-0.771D-02
 Coeff:      0.819D-02-0.126D-01 0.187D-01-0.604D-01-0.141D+00-0.203D+00
 Coeff:      0.376D+00 0.102D+01
 Gap=     0.023 Goal=   None    Shift=    0.000
 RMSDP=1.11D-05 MaxDP=3.97D-03 DE=-3.76D-05 OVMax= 2.19D-02

 Cycle  15  Pass 1  IDiag  1:
 RMSU=  1.50D-06    CP:  1.01D+00  9.22D-01  4.67D-01  5.43D-01  4.01D-01
                    CP:  8.88D-01  1.63D+00  1.72D+00  1.59D+00  1.40D+00
                    CP:  2.50D+00  2.76D+00  2.44D+00  2.02D+00
 E= -4644.95996795574     Delta-E=       -0.000044003700 Rises=F Damp=F
 DIIS: error= 2.44D-05 at cycle  15 NSaved=  15.
 NSaved=15 IEnMin=15 EnMin= -4644.95996795574     IErMin=15 ErrMin= 2.44D-05
 ErrMax= 2.44D-05  0.00D+00 EMaxC= 1.00D-01 BMatC= 2.73D-06 BMatP= 5.66D-06
 IDIUse=1 WtCom= 1.00D+00 WtEn= 0.00D+00
 Coeff-Com:  0.172D-03-0.142D-03 0.576D-04 0.148D-02 0.145D-04-0.842D-02
 Coeff-Com:  0.702D-03 0.352D-02 0.382D-01 0.541D-02-0.166D+00-0.458D+00
 Coeff-Com: -0.117D+00 0.907D+00 0.793D+00
 Coeff:      0.172D-03-0.142D-03 0.576D-04 0.148D-02 0.145D-04-0.842D-02
 Coeff:      0.702D-03 0.352D-02 0.382D-01 0.541D-02-0.166D+00-0.458D+00
 Coeff:     -0.117D+00 0.907D+00 0.793D+00
 Gap=     0.023 Goal=   None    Shift=    0.000
 RMSDP=9.70D-06 MaxDP=3.13D-03 DE=-4.40D-05 OVMax= 1.97D-02

 Cycle  16  Pass 1  IDiag  1:
 RMSU=  3.81D-06    CP:  1.01D+00  9.21D-01  4.67D-01  5.43D-01  3.95D-01
                    CP:  8.90D-01  1.63D+00  1.71D+00  1.66D+00  1.47D+00
                    CP:  2.93D+00  3.00D+00  3.00D+00  3.00D+00  1.38D+00
 E= -4644.95998862949     Delta-E=       -0.000020673746 Rises=F Damp=F
 DIIS: error= 1.64D-05 at cycle  16 NSaved=  16.
 NSaved=16 IEnMin=16 EnMin= -4644.95998862949     IErMin=16 ErrMin= 1.64D-05
 ErrMax= 1.64D-05  0.00D+00 EMaxC= 1.00D-01 BMatC= 7.86D-07 BMatP= 2.73D-06
 IDIUse=1 WtCom= 1.00D+00 WtEn= 0.00D+00
 Coeff-Com: -0.715D-04 0.163D-03 0.343D-05 0.953D-03 0.430D-03-0.477D-02
 Coeff-Com: -0.167D-02 0.498D-02 0.347D-01 0.356D-01-0.567D-01-0.275D+00
 Coeff-Com: -0.225D+00 0.301D+00 0.545D+00 0.639D+00
 Coeff:     -0.715D-04 0.163D-03 0.343D-05 0.953D-03 0.430D-03-0.477D-02
 Coeff:     -0.167D-02 0.498D-02 0.347D-01 0.356D-01-0.567D-01-0.275D+00
 Coeff:     -0.225D+00 0.301D+00 0.545D+00 0.639D+00
 Gap=     0.023 Goal=   None    Shift=    0.000
 RMSDP=3.77D-06 MaxDP=1.23D-03 DE=-2.07D-05 OVMax= 7.35D-03

 Cycle  17  Pass 1  IDiag  1:
 RMSU=  1.51D-06    CP:  1.01D+00  9.21D-01  4.67D-01  5.44D-01  3.93D-01
                    CP:  8.90D-01  1.63D+00  1.70D+00  1.68D+00  1.48D+00
                    CP:  3.00D+00  3.00D+00  3.00D+00  3.00D+00  1.70D+00
                    CP:  1.69D+00
 E= -4644.95999199271     Delta-E=       -0.000003363224 Rises=F Damp=F
 DIIS: error= 8.02D-06 at cycle  17 NSaved=  17.
 NSaved=17 IEnMin=17 EnMin= -4644.95999199271     IErMin=17 ErrMin= 8.02D-06
 ErrMax= 8.02D-06  0.00D+00 EMaxC= 1.00D-01 BMatC= 2.59D-07 BMatP= 7.86D-07
 IDIUse=1 WtCom= 1.00D+00 WtEn= 0.00D+00
 Coeff-Com: -0.941D-04 0.155D-03-0.412D-04 0.509D-03 0.417D-04-0.173D-02
 Coeff-Com: -0.238D-02 0.135D-02 0.182D-01 0.290D-01 0.185D-01-0.508D-01
 Coeff-Com: -0.121D+00-0.743D-01 0.124D+00 0.360D+00 0.698D+00
 Coeff:     -0.941D-04 0.155D-03-0.412D-04 0.509D-03 0.417D-04-0.173D-02
 Coeff:     -0.238D-02 0.135D-02 0.182D-01 0.290D-01 0.185D-01-0.508D-01
 Coeff:     -0.121D+00-0.743D-01 0.124D+00 0.360D+00 0.698D+00
 Gap=     0.023 Goal=   None    Shift=    0.000
 RMSDP=1.51D-06 MaxDP=5.49D-04 DE=-3.36D-06 OVMax= 2.73D-03

 Cycle  18  Pass 1  IDiag  1:
 RMSU=  4.19D-07    CP:  1.01D+00  9.20D-01  4.67D-01  5.44D-01  3.92D-01
                    CP:  8.89D-01  1.63D+00  1.69D+00  1.68D+00  1.49D+00
                    CP:  3.00D+00  3.00D+00  3.00D+00  3.00D+00  1.88D+00
                    CP:  1.98D+00  1.49D+00
 E= -4644.95999279418     Delta-E=       -0.000000801465 Rises=F Damp=F
 DIIS: error= 2.21D-06 at cycle  18 NSaved=  18.
 NSaved=18 IEnMin=18 EnMin= -4644.95999279418     IErMin=18 ErrMin= 2.21D-06
 ErrMax= 2.21D-06  0.00D+00 EMaxC= 1.00D-01 BMatC= 3.84D-08 BMatP= 2.59D-07
 IDIUse=1 WtCom= 1.00D+00 WtEn= 0.00D+00
 Coeff-Com: -0.522D-04 0.728D-04 0.193D-05 0.231D-03-0.456D-04 0.513D-04
 Coeff-Com: -0.130D-02-0.543D-03 0.371D-02 0.114D-01 0.224D-01 0.229D-01
 Coeff-Com: -0.393D-01-0.122D+00-0.376D-01 0.706D-01 0.460D+00 0.609D+00
 Coeff:     -0.522D-04 0.728D-04 0.193D-05 0.231D-03-0.456D-04 0.513D-04
 Coeff:     -0.130D-02-0.543D-03 0.371D-02 0.114D-01 0.224D-01 0.229D-01
 Coeff:     -0.393D-01-0.122D+00-0.376D-01 0.706D-01 0.460D+00 0.609D+00
 Gap=     0.023 Goal=   None    Shift=    0.000
 RMSDP=1.18D-06 MaxDP=3.67D-04 DE=-8.01D-07 OVMax= 2.34D-03

 Cycle  19  Pass 1  IDiag  1:
 RMSU=  2.97D-07    CP:  1.01D+00  9.20D-01  4.67D-01  5.44D-01  3.91D-01
                    CP:  8.89D-01  1.63D+00  1.69D+00  1.69D+00  1.50D+00
                    CP:  3.00D+00  3.00D+00  3.00D+00  3.00D+00  1.99D+00
                    CP:  2.20D+00  1.89D+00  1.41D+00
 E= -4644.95999300015     Delta-E=       -0.000000205971 Rises=F Damp=F
 DIIS: error= 9.26D-07 at cycle  19 NSaved=  19.
 NSaved=19 IEnMin=19 EnMin= -4644.95999300015     IErMin=19 ErrMin= 9.26D-07
 ErrMax= 9.26D-07  0.00D+00 EMaxC= 1.00D-01 BMatC= 9.29D-09 BMatP= 3.84D-08
 IDIUse=1 WtCom= 1.00D+00 WtEn= 0.00D+00
 Coeff-Com: -0.153D-04 0.171D-04 0.114D-04 0.102D-03-0.136D-04 0.150D-03
 Coeff-Com: -0.256D-03-0.305D-03 0.366D-03 0.298D-02 0.515D-02 0.679D-02
 Coeff-Com: -0.158D-01-0.410D-01-0.130D-01 0.123D-01 0.174D+00 0.311D+00
 Coeff-Com:  0.558D+00
 Coeff:     -0.153D-04 0.171D-04 0.114D-04 0.102D-03-0.136D-04 0.150D-03
 Coeff:     -0.256D-03-0.305D-03 0.366D-03 0.298D-02 0.515D-02 0.679D-02
 Coeff:     -0.158D-01-0.410D-01-0.130D-01 0.123D-01 0.174D+00 0.311D+00
 Coeff:      0.558D+00
 Gap=     0.023 Goal=   None    Shift=    0.000
 RMSDP=2.43D-07 MaxDP=7.87D-05 DE=-2.06D-07 OVMax= 4.83D-04

 Cycle  20  Pass 1  IDiag  1:
 RMSU=  6.91D-08    CP:  1.01D+00  9.20D-01  4.67D-01  5.44D-01  3.91D-01
                    CP:  8.89D-01  1.63D+00  1.69D+00  1.69D+00  1.50D+00
                    CP:  3.00D+00  3.00D+00  3.00D+00  3.00D+00  2.00D+00
                    CP:  2.23D+00  1.96D+00  1.47D+00  1.31D+00
 E= -4644.95999301881     Delta-E=       -0.000000018666 Rises=F Damp=F
 DIIS: error= 3.51D-07 at cycle  20 NSaved=  20.
 NSaved=20 IEnMin=20 EnMin= -4644.95999301881     IErMin=20 ErrMin= 3.51D-07
 ErrMax= 3.51D-07  0.00D+00 EMaxC= 1.00D-01 BMatC= 1.99D-09 BMatP= 9.29D-09
 IDIUse=1 WtCom= 1.00D+00 WtEn= 0.00D+00
 Coeff-Com: -0.354D-05 0.172D-05-0.772D-06 0.359D-04 0.484D-05 0.700D-04
 Coeff-Com:  0.250D-04 0.445D-04 0.769D-04 0.106D-02 0.107D-02 0.231D-02
 Coeff-Com: -0.691D-02-0.141D-01-0.461D-02 0.305D-02 0.702D-01 0.103D+00
 Coeff-Com:  0.298D+00 0.546D+00
 Coeff:     -0.354D-05 0.172D-05-0.772D-06 0.359D-04 0.484D-05 0.700D-04
 Coeff:      0.250D-04 0.445D-04 0.769D-04 0.106D-02 0.107D-02 0.231D-02
 Coeff:     -0.691D-02-0.141D-01-0.461D-02 0.305D-02 0.702D-01 0.103D+00
 Coeff:      0.298D+00 0.546D+00
 Gap=     0.023 Goal=   None    Shift=    0.000
 RMSDP=6.01D-08 MaxDP=1.78D-05 DE=-1.87D-08 OVMax= 1.25D-04

 Cycle  21  Pass 1  IDiag  1:
 Restarting incremental Fock formation.
 E= -4644.95999302401     Delta-E=       -0.000000005195 Rises=F Damp=F
 DIIS: error= 2.20D-07 at cycle  21 NSaved=  20.
 NSaved=20 IEnMin=20 EnMin= -4644.95999302401     IErMin=20 ErrMin= 2.20D-07
 ErrMax= 2.20D-07  0.00D+00 EMaxC= 1.00D-01 BMatC= 4.41D-10 BMatP= 1.99D-09
 IDIUse=1 WtCom= 1.00D+00 WtEn= 0.00D+00
 Coeff-Com:  0.205D-06-0.299D-05 0.792D-05 0.785D-05 0.263D-04 0.748D-04
 Coeff-Com:  0.121D-03 0.133D-04-0.164D-03-0.594D-03 0.828D-03 0.144D-02
 Coeff-Com:  0.323D-02-0.809D-03-0.302D-02-0.810D-02-0.533D-01-0.223D-01
 Coeff-Com:  0.298D+00 0.785D+00
 Coeff:      0.205D-06-0.299D-05 0.792D-05 0.785D-05 0.263D-04 0.748D-04
 Coeff:      0.121D-03 0.133D-04-0.164D-03-0.594D-03 0.828D-03 0.144D-02
 Coeff:      0.323D-02-0.809D-03-0.302D-02-0.810D-02-0.533D-01-0.223D-01
 Coeff:      0.298D+00 0.785D+00
 Gap=     0.023 Goal=   None    Shift=    0.000
 RMSDP=7.23D-08 MaxDP=1.53D-05 DE=-5.20D-09 OVMax= 1.67D-04

 Cycle  22  Pass 1  IDiag  1:
 RMSU=  7.22D-08    CP:  1.00D+00
 E= -4644.95999302720     Delta-E=       -0.000000003194 Rises=F Damp=F
 DIIS: error= 1.65D-07 at cycle  22 NSaved=  20.
 NSaved=20 IEnMin=20 EnMin= -4644.95999302720     IErMin=20 ErrMin= 1.65D-07
 ErrMax= 1.65D-07  0.00D+00 EMaxC= 1.00D-01 BMatC= 1.55D-10 BMatP= 4.41D-10
 IDIUse=1 WtCom= 1.00D+00 WtEn= 0.00D+00
 Coeff-Com: -0.873D-06 0.554D-05 0.232D-05 0.440D-04-0.486D-05-0.307D-04
 Coeff-Com: -0.945D-04-0.465D-03-0.310D-03 0.120D-02 0.369D-02 0.493D-02
 Coeff-Com: -0.508D-03-0.375D-02-0.286D-01-0.760D-01-0.119D+00 0.226D-01
 Coeff-Com:  0.561D+00 0.636D+00
 Coeff:     -0.873D-06 0.554D-05 0.232D-05 0.440D-04-0.486D-05-0.307D-04
 Coeff:     -0.945D-04-0.465D-03-0.310D-03 0.120D-02 0.369D-02 0.493D-02
 Coeff:     -0.508D-03-0.375D-02-0.286D-01-0.760D-01-0.119D+00 0.226D-01
 Coeff:      0.561D+00 0.636D+00
 Gap=     0.023 Goal=   None    Shift=    0.000
 RMSDP=4.63D-08 MaxDP=5.08D-06 DE=-3.19D-09 OVMax= 1.13D-04

 Cycle  23  Pass 1  IDiag  1:
 RMSU=  2.01D-08    CP:  1.00D+00  1.58D+00
 E= -4644.95999302763     Delta-E=       -0.000000000422 Rises=F Damp=F
 DIIS: error= 1.13D-07 at cycle  23 NSaved=  20.
 NSaved=20 IEnMin=20 EnMin= -4644.95999302763     IErMin=20 ErrMin= 1.13D-07
 ErrMax= 1.13D-07  0.00D+00 EMaxC= 1.00D-01 BMatC= 5.30D-11 BMatP= 1.55D-10
 IDIUse=1 WtCom= 1.00D+00 WtEn= 0.00D+00
 Coeff-Com:  0.378D-05-0.205D-05 0.367D-04-0.430D-04-0.977D-04-0.163D-03
 Coeff-Com: -0.390D-03-0.173D-03 0.552D-03 0.216D-02 0.248D-02 0.436D-03
 Coeff-Com: -0.131D-02-0.199D-01-0.388D-01-0.737D-01-0.521D-01 0.103D+00
 Coeff-Com:  0.374D+00 0.703D+00
 Coeff:      0.378D-05-0.205D-05 0.367D-04-0.430D-04-0.977D-04-0.163D-03
 Coeff:     -0.390D-03-0.173D-03 0.552D-03 0.216D-02 0.248D-02 0.436D-03
 Coeff:     -0.131D-02-0.199D-01-0.388D-01-0.737D-01-0.521D-01 0.103D+00
 Coeff:      0.374D+00 0.703D+00
 Gap=     0.023 Goal=   None    Shift=    0.000
 RMSDP=3.22D-08 MaxDP=7.24D-06 DE=-4.22D-10 OVMax= 6.14D-05

 Cycle  24  Pass 1  IDiag  1:
 RMSU=  1.70D-08    CP:  1.00D+00  1.79D+00  2.13D+00
 E= -4644.95999302835     Delta-E=       -0.000000000720 Rises=F Damp=F
 DIIS: error= 4.73D-08 at cycle  24 NSaved=  20.
 NSaved=20 IEnMin=20 EnMin= -4644.95999302835     IErMin=20 ErrMin= 4.73D-08
 ErrMax= 4.73D-08  0.00D+00 EMaxC= 1.00D-01 BMatC= 9.87D-12 BMatP= 5.30D-11
 IDIUse=1 WtCom= 1.00D+00 WtEn= 0.00D+00
 Coeff-Com:  0.115D-05 0.944D-05-0.241D-04-0.417D-04-0.715D-04-0.151D-03
 Coeff-Com: -0.209D-03-0.395D-03 0.344D-03 0.110D-02 0.136D-02 0.105D-02
 Coeff-Com: -0.739D-02-0.952D-02-0.245D-01-0.284D-01-0.707D-01 0.711D-01
 Coeff-Com:  0.457D+00 0.609D+00
 Coeff:      0.115D-05 0.944D-05-0.241D-04-0.417D-04-0.715D-04-0.151D-03
 Coeff:     -0.209D-03-0.395D-03 0.344D-03 0.110D-02 0.136D-02 0.105D-02
 Coeff:     -0.739D-02-0.952D-02-0.245D-01-0.284D-01-0.707D-01 0.711D-01
 Coeff:      0.457D+00 0.609D+00
 Gap=     0.023 Goal=   None    Shift=    0.000
 RMSDP=1.22D-08 MaxDP=3.59D-06 DE=-7.20D-10 OVMax= 2.16D-05

 Cycle  25  Pass 1  IDiag  1:
 RMSU=  4.57D-09    CP:  1.00D+00  1.86D+00  2.52D+00  1.36D+00
 E= -4644.95999302837     Delta-E=       -0.000000000025 Rises=F Damp=F
 DIIS: error= 1.96D-08 at cycle  25 NSaved=  20.
 NSaved=20 IEnMin=20 EnMin= -4644.95999302837     IErMin=20 ErrMin= 1.96D-08
 ErrMax= 1.96D-08  0.00D+00 EMaxC= 1.00D-01 BMatC= 2.85D-12 BMatP= 9.87D-12
 IDIUse=1 WtCom= 1.00D+00 WtEn= 0.00D+00
 Coeff-Com: -0.946D-06-0.966D-05-0.187D-05-0.766D-05-0.530D-05-0.581D-04
 Coeff-Com: -0.336D-03-0.150D-03 0.122D-03 0.680D-03 0.914D-03-0.838D-03
 Coeff-Com:  0.272D-02-0.315D-02-0.111D-01-0.688D-01-0.239D-01 0.150D+00
 Coeff-Com:  0.364D+00 0.590D+00
 Coeff:     -0.946D-06-0.966D-05-0.187D-05-0.766D-05-0.530D-05-0.581D-04
 Coeff:     -0.336D-03-0.150D-03 0.122D-03 0.680D-03 0.914D-03-0.838D-03
 Coeff:      0.272D-02-0.315D-02-0.111D-01-0.688D-01-0.239D-01 0.150D+00
 Coeff:      0.364D+00 0.590D+00
 Gap=     0.023 Goal=   None    Shift=    0.000
 RMSDP=4.22D-09 MaxDP=6.47D-07 DE=-2.55D-11 OVMax= 6.92D-06

 Error on total polarization charges =  0.08637
 SCF Done:  E(RB3LYP) =  -4644.95999303     A.U. after   25 cycles
            NFock= 25  Conv=0.42D-08     -V/T= 2.0458
 KE= 4.441717357167D+03 PE=-4.128996068054D+04 EE= 1.697123701185D+04
 SMD-CDS (non-electrostatic) energy       (kcal/mol) =     -13.65
 (included in total energy above)
 Leave Link  502 at Sun Jan 26 10:47:17 2025, MaxMem=  7247757312 cpu:          267937.6 elap:            8457.4
 (Enter /cm/shared/apps/spack/cpu/opt/spack/linux-centos8-zen/gcc-8.3.1/gaussian-16.C.01-po5bqktfeugvmjyga3v7eigbecnokxng/g16/l601.exe)
 Copying SCF densities to generalized density rwf, IOpCl= 0 IROHF=0.
 Hyperfine terms turned off by default for NAtoms > 100.

 **********************************************************************

            Population analysis using the SCF Density.

 **********************************************************************

 Alpha  occ. eigenvalues --  -89.03496 -89.03231 -24.72114 -24.71855 -24.71693
 Alpha  occ. eigenvalues --  -24.71639 -24.71457 -24.71433 -24.70434 -19.15601
 Alpha  occ. eigenvalues --  -19.09886 -19.09696 -19.09577 -19.09379 -14.43121
 Alpha  occ. eigenvalues --  -14.34304 -14.28986 -10.42767 -10.42512 -10.30888
 Alpha  occ. eigenvalues --  -10.27825 -10.27541 -10.25178 -10.24168 -10.24024
 Alpha  occ. eigenvalues --  -10.23868 -10.23666 -10.23189 -10.22550 -10.21953
 Alpha  occ. eigenvalues --  -10.21713 -10.21590 -10.21558 -10.21450 -10.21253
 Alpha  occ. eigenvalues --  -10.20958 -10.20921 -10.20876 -10.20857 -10.20736
 Alpha  occ. eigenvalues --  -10.20658 -10.19753 -10.19674 -10.19640 -10.19581
 Alpha  occ. eigenvalues --  -10.19416 -10.19407 -10.19386 -10.19243 -10.19115
 Alpha  occ. eigenvalues --  -10.19057 -10.18993 -10.18888 -10.18887 -10.18773
 Alpha  occ. eigenvalues --  -10.18725 -10.18681 -10.18624 -10.18616 -10.18192
 Alpha  occ. eigenvalues --  -10.18167 -10.18108 -10.18099 -10.18079 -10.18063
 Alpha  occ. eigenvalues --  -10.18051 -10.18037 -10.18015 -10.18007 -10.17997
 Alpha  occ. eigenvalues --  -10.17942 -10.17936 -10.17782 -10.17713 -10.17597
 Alpha  occ. eigenvalues --  -10.17514 -10.16462  -8.08038  -8.07759  -6.79738
 Alpha  occ. eigenvalues --   -6.04357  -6.04275  -6.04238  -6.04084  -6.03992
 Alpha  occ. eigenvalues --   -6.03963  -4.81895  -4.81160  -4.81114  -1.86671
 Alpha  occ. eigenvalues --   -1.86475  -1.86435  -1.85826  -1.85823  -1.32786
 Alpha  occ. eigenvalues --   -1.32541  -1.24875  -1.23767  -1.23513  -1.23377
 Alpha  occ. eigenvalues --   -1.23146  -1.11671  -1.10126  -1.08013  -1.04099
 Alpha  occ. eigenvalues --   -0.99243  -0.99189  -0.97359  -0.90628  -0.89191
 Alpha  occ. eigenvalues --   -0.88843  -0.88484  -0.88367  -0.88198  -0.85918
 Alpha  occ. eigenvalues --   -0.85830  -0.84281  -0.84089  -0.82199  -0.81790
 Alpha  occ. eigenvalues --   -0.80739  -0.79802  -0.79450  -0.78977  -0.78834
 Alpha  occ. eigenvalues --   -0.78507  -0.77279  -0.77207  -0.76630  -0.76557
 Alpha  occ. eigenvalues --   -0.75015  -0.74848  -0.74528  -0.73818  -0.73239
 Alpha  occ. eigenvalues --   -0.72629  -0.72292  -0.72034  -0.70826  -0.70543
 Alpha  occ. eigenvalues --   -0.69705  -0.68011  -0.67050  -0.66040  -0.65576
 Alpha  occ. eigenvalues --   -0.65252  -0.64972  -0.64084  -0.63972  -0.63823
 Alpha  occ. eigenvalues --   -0.63548  -0.63164  -0.62810  -0.62233  -0.62006
 Alpha  occ. eigenvalues --   -0.61779  -0.60460  -0.60391  -0.60171  -0.60006
 Alpha  occ. eigenvalues --   -0.59951  -0.59734  -0.59115  -0.58399  -0.58045
 Alpha  occ. eigenvalues --   -0.57674  -0.57080  -0.56923  -0.55168  -0.55116
 Alpha  occ. eigenvalues --   -0.54907  -0.54848  -0.53248  -0.52760  -0.52630
 Alpha  occ. eigenvalues --   -0.52133  -0.51824  -0.51621  -0.51361  -0.51116
 Alpha  occ. eigenvalues --   -0.50691  -0.50580  -0.50210  -0.49868  -0.49195
 Alpha  occ. eigenvalues --   -0.48935  -0.48590  -0.48367  -0.48295  -0.48274
 Alpha  occ. eigenvalues --   -0.48028  -0.47978  -0.47877  -0.47492  -0.47450
 Alpha  occ. eigenvalues --   -0.47271  -0.47177  -0.46979  -0.46616  -0.46439
 Alpha  occ. eigenvalues --   -0.45897  -0.45754  -0.45685  -0.45590  -0.45173
 Alpha  occ. eigenvalues --   -0.44915  -0.44699  -0.44464  -0.44374  -0.44263
 Alpha  occ. eigenvalues --   -0.44158  -0.44041  -0.43408  -0.43321  -0.43171
 Alpha  occ. eigenvalues --   -0.43096  -0.43085  -0.43008  -0.42800  -0.42574
 Alpha  occ. eigenvalues --   -0.42454  -0.42209  -0.42046  -0.41827  -0.41617
 Alpha  occ. eigenvalues --   -0.41568  -0.41285  -0.40957  -0.40872  -0.40750
 Alpha  occ. eigenvalues --   -0.40395  -0.40296  -0.39958  -0.39628  -0.39191
 Alpha  occ. eigenvalues --   -0.39143  -0.38773  -0.38382  -0.38265  -0.37970
 Alpha  occ. eigenvalues --   -0.37803  -0.37471  -0.37144  -0.36888  -0.36748
 Alpha  occ. eigenvalues --   -0.36590  -0.36387  -0.36189  -0.36145  -0.35977
 Alpha  occ. eigenvalues --   -0.35797  -0.35395  -0.35052  -0.34814  -0.34691
 Alpha  occ. eigenvalues --   -0.34512  -0.34219  -0.33675  -0.33296  -0.32835
 Alpha  occ. eigenvalues --   -0.32392  -0.32132  -0.31687  -0.31491  -0.31186
 Alpha  occ. eigenvalues --   -0.30669  -0.30467  -0.30348  -0.29229  -0.28777
 Alpha  occ. eigenvalues --   -0.28576  -0.28391  -0.27571  -0.27447  -0.27377
 Alpha  occ. eigenvalues --   -0.27311  -0.27155  -0.26454  -0.26383  -0.26154
 Alpha  occ. eigenvalues --   -0.25975  -0.25324  -0.24505  -0.24245  -0.24058
 Alpha  occ. eigenvalues --   -0.23650  -0.23366  -0.22892  -0.21906  -0.21530
 Alpha virt. eigenvalues --   -0.19236  -0.07706  -0.07234  -0.07198  -0.05923
 Alpha virt. eigenvalues --   -0.05206  -0.04189  -0.03847  -0.03410  -0.03086
 Alpha virt. eigenvalues --   -0.02399  -0.01788  -0.01649  -0.00898   0.00274
 Alpha virt. eigenvalues --    0.00305   0.01047   0.02929   0.03894   0.04155
 Alpha virt. eigenvalues --    0.04316   0.04341   0.05000   0.05157   0.05211
 Alpha virt. eigenvalues --    0.05448   0.05767   0.05950   0.05965   0.06453
 Alpha virt. eigenvalues --    0.06602   0.06783   0.06965   0.07144   0.07389
 Alpha virt. eigenvalues --    0.07569   0.07757   0.07853   0.08229   0.08509
 Alpha virt. eigenvalues --    0.08668   0.08760   0.08887   0.09171   0.09258
 Alpha virt. eigenvalues --    0.09652   0.09730   0.09995   0.10107   0.10169
 Alpha virt. eigenvalues --    0.10306   0.10407   0.10525   0.10766   0.10901
 Alpha virt. eigenvalues --    0.10946   0.11158   0.11170   0.11484   0.11624
 Alpha virt. eigenvalues --    0.11740   0.11979   0.12075   0.12582   0.12655
 Alpha virt. eigenvalues --    0.12713   0.12960   0.13199   0.13315   0.13446
 Alpha virt. eigenvalues --    0.13598   0.13684   0.13918   0.14012   0.14116
 Alpha virt. eigenvalues --    0.14174   0.14601   0.14630   0.14783   0.14931
 Alpha virt. eigenvalues --    0.15137   0.15397   0.15434   0.15443   0.15768
 Alpha virt. eigenvalues --    0.15900   0.15996   0.16078   0.16269   0.16664
 Alpha virt. eigenvalues --    0.16827   0.16849   0.17128   0.17279   0.17570
 Alpha virt. eigenvalues --    0.17901   0.18060   0.18157   0.18487   0.18635
 Alpha virt. eigenvalues --    0.18829   0.18922   0.19057   0.19184   0.19266
 Alpha virt. eigenvalues --    0.19336   0.19465   0.19681   0.19802   0.19988
 Alpha virt. eigenvalues --    0.20268   0.20393   0.20532   0.20607   0.20757
 Alpha virt. eigenvalues --    0.20850   0.20890   0.21007   0.21198   0.21432
 Alpha virt. eigenvalues --    0.21496   0.21677   0.21754   0.21776   0.22059
 Alpha virt. eigenvalues --    0.22084   0.22185   0.22254   0.22679   0.22782
 Alpha virt. eigenvalues --    0.22882   0.22990   0.23218   0.23493   0.23624
 Alpha virt. eigenvalues --    0.23693   0.23837   0.23926   0.24221   0.24268
 Alpha virt. eigenvalues --    0.24563   0.24658   0.24789   0.24940   0.25014
 Alpha virt. eigenvalues --    0.25150   0.25211   0.25377   0.25544   0.25664
 Alpha virt. eigenvalues --    0.25882   0.25964   0.26060   0.26210   0.26517
 Alpha virt. eigenvalues --    0.26672   0.26847   0.26945   0.27086   0.27303
 Alpha virt. eigenvalues --    0.27539   0.27570   0.27811   0.28120   0.28225
 Alpha virt. eigenvalues --    0.28293   0.28437   0.28626   0.28762   0.28874
 Alpha virt. eigenvalues --    0.28953   0.29046   0.29194   0.29245   0.29359
 Alpha virt. eigenvalues --    0.29597   0.29748   0.29904   0.29974   0.30245
 Alpha virt. eigenvalues --    0.30357   0.30599   0.30671   0.30749   0.30838
 Alpha virt. eigenvalues --    0.31086   0.31137   0.31319   0.31460   0.31545
 Alpha virt. eigenvalues --    0.31709   0.31812   0.31848   0.32019   0.32186
 Alpha virt. eigenvalues --    0.32391   0.32646   0.32771   0.32903   0.33042
 Alpha virt. eigenvalues --    0.33228   0.33376   0.33553   0.33691   0.33779
 Alpha virt. eigenvalues --    0.33978   0.34095   0.34318   0.34435   0.34506
 Alpha virt. eigenvalues --    0.34759   0.34843   0.34981   0.35187   0.35582
 Alpha virt. eigenvalues --    0.35633   0.35837   0.35879   0.36053   0.36211
 Alpha virt. eigenvalues --    0.36422   0.36559   0.36623   0.36736   0.36913
 Alpha virt. eigenvalues --    0.37042   0.37119   0.37291   0.37511   0.37687
 Alpha virt. eigenvalues --    0.37855   0.38021   0.38123   0.38301   0.38599
 Alpha virt. eigenvalues --    0.38792   0.38894   0.39045   0.39124   0.39249
 Alpha virt. eigenvalues --    0.39430   0.39599   0.39719   0.39970   0.40012
 Alpha virt. eigenvalues --    0.40224   0.40280   0.40478   0.40692   0.40777
 Alpha virt. eigenvalues --    0.41033   0.41156   0.41290   0.41338   0.41616
 Alpha virt. eigenvalues --    0.41730   0.41829   0.41964   0.42057   0.42229
 Alpha virt. eigenvalues --    0.42296   0.42395   0.42475   0.42724   0.42763
 Alpha virt. eigenvalues --    0.42916   0.43128   0.43243   0.43313   0.43391
 Alpha virt. eigenvalues --    0.43514   0.43617   0.43751   0.43951   0.44111
 Alpha virt. eigenvalues --    0.44170   0.44338   0.44608   0.44805   0.44919
 Alpha virt. eigenvalues --    0.44942   0.45020   0.45176   0.45384   0.45655
 Alpha virt. eigenvalues --    0.45749   0.45899   0.46095   0.46330   0.46510
 Alpha virt. eigenvalues --    0.46560   0.46658   0.47061   0.47157   0.47201
 Alpha virt. eigenvalues --    0.47352   0.47556   0.47609   0.47885   0.47945
 Alpha virt. eigenvalues --    0.48182   0.48395   0.48508   0.48596   0.48722
 Alpha virt. eigenvalues --    0.49001   0.49117   0.49160   0.49263   0.49309
 Alpha virt. eigenvalues --    0.49460   0.49734   0.49880   0.49921   0.50179
 Alpha virt. eigenvalues --    0.50388   0.50507   0.50641   0.50792   0.50862
 Alpha virt. eigenvalues --    0.50898   0.51127   0.51221   0.51307   0.51563
 Alpha virt. eigenvalues --    0.51809   0.51978   0.51998   0.52175   0.52334
 Alpha virt. eigenvalues --    0.52385   0.52614   0.52954   0.52982   0.53272
 Alpha virt. eigenvalues --    0.53394   0.53721   0.53838   0.54008   0.54184
 Alpha virt. eigenvalues --    0.54230   0.54530   0.54622   0.54893   0.55184
 Alpha virt. eigenvalues --    0.55243   0.55561   0.55824   0.55883   0.56232
 Alpha virt. eigenvalues --    0.56499   0.56671   0.56864   0.56992   0.57089
 Alpha virt. eigenvalues --    0.57420   0.57663   0.57791   0.58018   0.58160
 Alpha virt. eigenvalues --    0.58469   0.58538   0.58658   0.58846   0.58967
 Alpha virt. eigenvalues --    0.59324   0.59502   0.59774   0.59928   0.60201
 Alpha virt. eigenvalues --    0.60476   0.60550   0.60752   0.61017   0.61275
 Alpha virt. eigenvalues --    0.61409   0.61492   0.61753   0.61874   0.62003
 Alpha virt. eigenvalues --    0.62428   0.62473   0.62684   0.62838   0.62894
 Alpha virt. eigenvalues --    0.63147   0.63363   0.63407   0.63546   0.63761
 Alpha virt. eigenvalues --    0.64044   0.64377   0.64447   0.64569   0.64621
 Alpha virt. eigenvalues --    0.64938   0.65098   0.65186   0.65491   0.65598
 Alpha virt. eigenvalues --    0.65847   0.65981   0.66121   0.66378   0.66667
 Alpha virt. eigenvalues --    0.66678   0.66790   0.66906   0.66960   0.67138
 Alpha virt. eigenvalues --    0.67308   0.67408   0.67448   0.67637   0.67787
 Alpha virt. eigenvalues --    0.67796   0.67965   0.68330   0.68408   0.68575
 Alpha virt. eigenvalues --    0.68607   0.68897   0.69101   0.69199   0.69228
 Alpha virt. eigenvalues --    0.69330   0.69503   0.69547   0.69794   0.69892
 Alpha virt. eigenvalues --    0.70039   0.70266   0.70376   0.70617   0.70687
 Alpha virt. eigenvalues --    0.70813   0.70945   0.71073   0.71293   0.71464
 Alpha virt. eigenvalues --    0.71759   0.71945   0.72075   0.72226   0.72311
 Alpha virt. eigenvalues --    0.72367   0.72387   0.72675   0.73047   0.73270
 Alpha virt. eigenvalues --    0.73297   0.73479   0.73718   0.74039   0.74196
 Alpha virt. eigenvalues --    0.74403   0.74415   0.74607   0.74956   0.75136
 Alpha virt. eigenvalues --    0.75475   0.75609   0.75731   0.76004   0.76136
 Alpha virt. eigenvalues --    0.76260   0.76395   0.76627   0.76772   0.77013
 Alpha virt. eigenvalues --    0.77146   0.77296   0.77350   0.77449   0.77740
 Alpha virt. eigenvalues --    0.78021   0.78065   0.78287   0.78558   0.78826
 Alpha virt. eigenvalues --    0.78903   0.79068   0.79249   0.79336   0.79527
 Alpha virt. eigenvalues --    0.79721   0.79892   0.80066   0.80105   0.80385
 Alpha virt. eigenvalues --    0.80455   0.80572   0.80618   0.80861   0.80997
 Alpha virt. eigenvalues --    0.81354   0.81543   0.81721   0.81901   0.82460
 Alpha virt. eigenvalues --    0.82592   0.82613   0.82720   0.82874   0.83172
 Alpha virt. eigenvalues --    0.83236   0.83427   0.83531   0.83533   0.83994
 Alpha virt. eigenvalues --    0.84237   0.84292   0.84515   0.84738   0.84867
 Alpha virt. eigenvalues --    0.84996   0.85136   0.85265   0.85533   0.85836
 Alpha virt. eigenvalues --    0.86117   0.86168   0.86337   0.86406   0.86627
 Alpha virt. eigenvalues --    0.86700   0.87071   0.87357   0.87503   0.87538
 Alpha virt. eigenvalues --    0.87825   0.88159   0.88202   0.88438   0.88708
 Alpha virt. eigenvalues --    0.88891   0.89095   0.89188   0.89507   0.89629
 Alpha virt. eigenvalues --    0.89802   0.89897   0.89991   0.90366   0.90491
 Alpha virt. eigenvalues --    0.90598   0.90718   0.90740   0.91015   0.91212
 Alpha virt. eigenvalues --    0.91412   0.91537   0.91792   0.92126   0.92336
[...]
 Alpha virt. eigenvalues --    4.61442   4.62136   4.62284   4.63380   4.63673
 Alpha virt. eigenvalues --    4.63826   4.64099   4.64427   4.64495   4.64565
 Alpha virt. eigenvalues --    4.64780   4.65102   4.65176   4.65327   4.65470
 Alpha virt. eigenvalues --    4.66072   4.66141   4.66264   4.66895   4.67188
 Alpha virt. eigenvalues --    4.67290   4.67702   4.68025   4.68195   4.68450
 Alpha virt. eigenvalues --    4.68832   4.69280   4.69610   4.69874   4.70102
 Alpha virt. eigenvalues --    4.70441   4.70847   4.71156   4.71858   4.71964
 Alpha virt. eigenvalues --    4.72532   4.72726   4.73194   4.73418   4.73865
 Alpha virt. eigenvalues --    4.74198   4.74566   4.75009   4.75120   4.75420
 Alpha virt. eigenvalues --    4.75708   4.75893   4.76158   4.76433   4.76857
 Alpha virt. eigenvalues --    4.77323   4.77449   4.77843   4.77976   4.78071
 Alpha virt. eigenvalues --    4.78553   4.79233   4.79426   4.79819   4.80069
 Alpha virt. eigenvalues --    4.80602   4.81031   4.81353   4.81995   4.82358
 Alpha virt. eigenvalues --    4.82664   4.82840   4.83174   4.83653   4.83971
 Alpha virt. eigenvalues --    4.84353   4.84707   4.85138   4.85347   4.85556
 Alpha virt. eigenvalues --    4.86093   4.86631   4.87256   4.87364   4.88031
 Alpha virt. eigenvalues --    4.89085   4.89417   4.89605   4.89787   4.90132
 Alpha virt. eigenvalues --    4.90643   4.91062   4.91274   4.92133   4.92276
 Alpha virt. eigenvalues --    4.92378   4.92891   4.93654   4.93823   4.94279
 Alpha virt. eigenvalues --    4.94464   4.94858   4.95042   4.95638   4.97827
 Alpha virt. eigenvalues --    4.98338   4.98683   4.99009   4.99113   4.99893
 Alpha virt. eigenvalues --    5.00116   5.00459   5.00774   5.01536   5.01763
 Alpha virt. eigenvalues --    5.02474   5.02780   5.02850   5.03446   5.03710
 Alpha virt. eigenvalues --    5.04253   5.04627   5.04831   5.04895   5.05485
 Alpha virt. eigenvalues --    5.05659   5.06076   5.07281   5.07567   5.07723
 Alpha virt. eigenvalues --    5.08111   5.08283   5.09328   5.09736   5.10362
 Alpha virt. eigenvalues --    5.10885   5.10989   5.11752   5.11943   5.12388
 Alpha virt. eigenvalues --    5.12462   5.12669   5.12785   5.13126   5.14075
 Alpha virt. eigenvalues --    5.14674   5.15565   5.15645   5.15723   5.16399
 Alpha virt. eigenvalues --    5.16569   5.16685   5.17379   5.17703   5.18085
 Alpha virt. eigenvalues --    5.18239   5.18715   5.18795   5.19167   5.19486
 Alpha virt. eigenvalues --    5.19640   5.19995   5.20231   5.20311   5.20602
 Alpha virt. eigenvalues --    5.21190   5.21584   5.21681   5.21882   5.22030
 Alpha virt. eigenvalues --    5.22457   5.22677   5.22749   5.23337   5.23726
 Alpha virt. eigenvalues --    5.23914   5.24198   5.24653   5.24842   5.25082
 Alpha virt. eigenvalues --    5.25701   5.25824   5.26220   5.26753   5.27215
 Alpha virt. eigenvalues --    5.27374   5.27524   5.27989   5.28442   5.29683
 Alpha virt. eigenvalues --    5.29998   5.30215   5.30306   5.30754   5.30973
 Alpha virt. eigenvalues --    5.31227   5.31448   5.31496   5.31790   5.32262
 Alpha virt. eigenvalues --    5.32713   5.33374   5.33438   5.33822   5.34076
 Alpha virt. eigenvalues --    5.34395   5.34779   5.35023   5.35394   5.35708
 Alpha virt. eigenvalues --    5.36101   5.36536   5.36687   5.37041   5.37336
 Alpha virt. eigenvalues --    5.37570   5.38222   5.38864   5.39072   5.39354
 Alpha virt. eigenvalues --    5.39500   5.40161   5.40690   5.41122   5.41525
 Alpha virt. eigenvalues --    5.41729   5.42087   5.42629   5.43597   5.43626
 Alpha virt. eigenvalues --    5.44079   5.44372   5.45101   5.45475   5.46086
 Alpha virt. eigenvalues --    5.46513   5.47168   5.47793   5.48361   5.48849
 Alpha virt. eigenvalues --    5.49301   5.49566   5.50010   5.50751   5.50982
 Alpha virt. eigenvalues --    5.51593   5.52116   5.52464   5.52861   5.53641
 Alpha virt. eigenvalues --    5.54103   5.54410   5.55570   5.55883   5.56240
 Alpha virt. eigenvalues --    5.56505   5.57372   5.57942   5.58380   5.58680
 Alpha virt. eigenvalues --    5.59006   5.59609   5.60098   5.60271   5.60996
 Alpha virt. eigenvalues --    5.61096   5.61229   5.61846   5.62210   5.62861
 Alpha virt. eigenvalues --    5.63183   5.63492   5.63805   5.63908   5.64488
 Alpha virt. eigenvalues --    5.64805   5.65361   5.65684   5.66578   5.66981
 Alpha virt. eigenvalues --    5.67163   5.68119   5.68960   5.69513   5.70060
 Alpha virt. eigenvalues --    5.70209   5.71291   5.71786   5.71798   5.73244
 Alpha virt. eigenvalues --    5.73985   5.75012   5.75095   5.75995   5.76651
 Alpha virt. eigenvalues --    5.77082   5.77197   5.77853   5.79313   5.80868
 Alpha virt. eigenvalues --    5.81791   5.82227   5.82743   5.82888   5.85072
 Alpha virt. eigenvalues --    5.85291   5.86558   5.86766   5.87335   5.88840
 Alpha virt. eigenvalues --    5.89299   5.90964   5.93765   5.95243   5.95516
 Alpha virt. eigenvalues --    5.97237   5.99470   6.00811   6.01537   6.01903
 Alpha virt. eigenvalues --    6.02118   6.02838   6.04551   6.05389   6.06039
 Alpha virt. eigenvalues --    6.06403   6.06748   6.07706   6.08554   6.09747
 Alpha virt. eigenvalues --    6.11328   6.12404   6.14513   6.16262   6.18417
 Alpha virt. eigenvalues --    6.20955   6.23567   6.24849   6.25217   6.35149
 Alpha virt. eigenvalues --    6.39952   6.42478   6.44123   6.45851   6.46886
 Alpha virt. eigenvalues --    6.50167   6.53687   6.54613   6.56042   6.56681
 Alpha virt. eigenvalues --    6.57547   6.60094   6.64172   6.68118   6.69521
 Alpha virt. eigenvalues --    6.71005   6.75361   6.75407   6.75929   6.77632
 Alpha virt. eigenvalues --    6.78592   6.78628   6.79089   6.82218   6.82416
 Alpha virt. eigenvalues --    6.82752   6.82850   6.82904   6.83637   6.83706
 Alpha virt. eigenvalues --    6.84286   6.84395   6.84832   6.84868   6.85008
 Alpha virt. eigenvalues --    6.85590   6.85632   6.86136   6.86248   6.86309
 Alpha virt. eigenvalues --    6.86720   6.86849   6.86946   6.87797   6.89039
 Alpha virt. eigenvalues --    6.90977   6.94518   6.97000   6.97027   6.97214
 Alpha virt. eigenvalues --    6.97824   6.98645   6.99921   7.01180   7.01421
 Alpha virt. eigenvalues --    7.01451   7.04818   7.05439   7.06579   7.08528
 Alpha virt. eigenvalues --    7.08753   7.08978   7.11490   7.12504   7.13073
 Alpha virt. eigenvalues --    7.13084   7.14833   7.19571   7.23235   7.27736
 Alpha virt. eigenvalues --    7.33007   7.36203   7.36308   7.36321   7.36819
 Alpha virt. eigenvalues --    7.38826   7.43597   7.43651   7.48336   7.48595
 Alpha virt. eigenvalues --    7.48651   7.55237   7.56231   7.58827   7.58892
 Alpha virt. eigenvalues --    7.62486   7.62643   7.67662   7.87070   7.89356
 Alpha virt. eigenvalues --    7.97846   8.04235   8.26568   8.28197   8.29974
 Alpha virt. eigenvalues --    8.30733   8.30834   8.31302   8.40940   8.45070
 Alpha virt. eigenvalues --    8.45520   8.49113   8.49754   8.57392   8.57568
 Alpha virt. eigenvalues --    8.59707   8.67310   8.67608   8.75033   8.75274
 Alpha virt. eigenvalues --    8.78534   8.78551   8.81295   8.88663   8.89212
 Alpha virt. eigenvalues --    8.94662   8.95273   8.97920   8.99198   8.99838
 Alpha virt. eigenvalues --    9.03465   9.07568   9.09617   9.11221   9.16310
 Alpha virt. eigenvalues --    9.17231   9.18983   9.52480   9.55912   9.75275
 Alpha virt. eigenvalues --    9.83895  10.15053  10.17361  22.55392  22.63679
 Alpha virt. eigenvalues --   22.65859  22.69746  22.81345  22.87080  22.88297
 Alpha virt. eigenvalues --   22.89140  22.92739  22.93905  22.97961  23.01009
 Alpha virt. eigenvalues --   23.02602  23.04965  23.05988  23.07132  23.07773
 Alpha virt. eigenvalues --   23.09146  23.09694  23.10667  23.12952  23.13740
 Alpha virt. eigenvalues --   23.14533  23.16247  23.17926  23.18476  23.19585
 Alpha virt. eigenvalues --   23.20281  23.20724  23.22011  23.23227  23.24366
 Alpha virt. eigenvalues --   23.24741  23.26126  23.26721  23.28014  23.29483
 Alpha virt. eigenvalues --   23.29835  23.31533  23.32235  23.33674  23.35411
 Alpha virt. eigenvalues --   23.37313  23.41614  23.41733  23.42248  23.43439
 Alpha virt. eigenvalues --   23.51727  23.53527  23.55678  23.62353  23.77382
 Alpha virt. eigenvalues --   23.80383  23.81981  23.90547  24.11213  24.12613
 Alpha virt. eigenvalues --   24.16215  24.22571  24.27353  24.34728  24.42692
 Alpha virt. eigenvalues --   32.55198  32.85446  33.21776  34.58508  34.63030
 Alpha virt. eigenvalues --   34.71743  42.86773  43.91365  44.01582  44.15724
 Alpha virt. eigenvalues --   44.24586  44.28647  57.10782  57.14912  57.22956
 Alpha virt. eigenvalues --   57.27424  57.48867  57.50314  57.60506 117.87403
          Condensed to atoms (all electrons):
 Mulliken charges:
               1
     1  C    0.376899
     2  C   -0.052346
     3  C    0.072147
     4  C   -0.067795
     5  C    0.241163
     6  N   -0.292489
     7  H    0.156692
     8  C   -0.167615
     9  C    0.128128
    10  C   -0.136568
    11  C   -0.159951
    12  C   -0.101881
    13  H    0.150082
    14  H    0.155988
    15  H    0.156176
    16  C    0.331445
    17  C    0.064090
    18  C   -0.226343
    19  C   -0.181918
    20  C   -0.166617
    21  H    0.156833
    22  C   -0.172396
    23  H    0.158052
    24  C   -0.157100
    25  H    0.150801
    26  H    0.158610
    27  H    0.153970
    28  F   -0.199514
    29  C   -0.280378
    30  H    0.108168
    31  H    0.123493
    32  H    0.106181
    33  C   -0.059330
    34  C   -0.029367
    35  C    0.013353
    36  H    0.115907
    37  H    0.126810
    38  C   -0.010174
    39  H    0.129508
    40  H    0.127033
    41  H    0.103010
    42  H    0.117167
    43  H    0.117475
    44  H    0.113835
    45  N    0.067972
    46  O   -0.319307
    47  I   -0.525298
    48  H    0.152406
    49  C   -0.140737
    50  C   -0.179645
    51  C   -0.022267
    52  C   -0.065218
    53  C   -0.141532
    54  C   -0.135987
    55  H    0.154636
    56  H    0.162034
    57  C    0.047302
    58  C   -0.078041
    59  H    0.146564
    60  H    0.153506
    61  C   -0.144099
    62  C   -0.054071
    63  H    0.146621
    64  C    0.078285
    65  C   -0.088898
    66  C   -0.040081
    67  C   -0.110132
    68  C   -0.050946
    69  C   -0.182687
    70  C   -0.086532
    71  C   -0.139011
    72  C   -0.141492
    73  H    0.161517
    74  H    0.146056
    75  C   -0.137660
    76  H    0.147322
    77  H    0.154388
    78  H    0.153495
    79  S    0.918203
    80  O   -0.514657
    81  O   -0.565382
    82  S    0.853561
    83  O   -0.496776
    84  O   -0.520004
    85  N   -0.437993
    86  C    0.102742
    87  C    0.263537
    88  C    0.048469
    89  C    0.196663
    90  C   -0.073098
    91  C   -0.159763
    92  C   -0.198625
    93  C   -0.096591
    94  C   -0.120612
    95  H    0.160430
    96  C   -0.143589
    97  H    0.160240
    98  H    0.160787
    99  H    0.159596
   100  C   -0.088855
   101  C   -0.197840
   102  C   -0.199592
   103  C   -0.122107
   104  H    0.143932
   105  C   -0.075903
   106  C   -0.168811
   107  H    0.160749
   108  H    0.159247
   109  H    0.161835
   110  C    0.565187
   111  F   -0.188218
   112  F   -0.187207
   113  F   -0.190402
   114  C    0.559936
   115  F   -0.186037
   116  F   -0.191041
   117  F   -0.191704
 Sum of Mulliken charges =  -0.00000
 Mulliken charges with hydrogens summed into heavy atoms:
               1
     1  C    0.376899
     2  C    0.100060
     3  C    0.072147
     4  C    0.088897
     5  C    0.241163
     6  N   -0.292489
     8  C   -0.167615
     9  C    0.128128
    10  C    0.013514
    11  C   -0.003776
    12  C    0.054107
    16  C    0.331445
    17  C    0.064090
    18  C   -0.069510
    19  C   -0.023866
    20  C   -0.015816
    22  C   -0.013786
    24  C   -0.003130
    28  F   -0.199514
    29  C    0.057463
    33  C    0.183387
    34  C    0.227174
    35  C    0.233531
    38  C    0.221136
    45  N    0.067972
    46  O   -0.319307
    47  I   -0.525298
    49  C    0.013899
    50  C   -0.017610
    51  C   -0.022267
    52  C   -0.065218
    53  C    0.005032
    54  C    0.017519
    57  C    0.047302
    58  C    0.068581
    61  C   -0.144099
    62  C   -0.054071
    64  C    0.078285
    65  C   -0.088898
    66  C   -0.040081
    67  C   -0.110132
    68  C   -0.050946
    69  C   -0.021170
    70  C    0.059524
    71  C    0.008311
    72  C    0.012896
    75  C    0.015834
    79  S    0.918203
    80  O   -0.514657
    81  O   -0.565382
    82  S    0.853561
    83  O   -0.496776
    84  O   -0.520004
    85  N   -0.437993
    86  C    0.102742
    87  C    0.263537
    88  C    0.048469
    89  C    0.196663
    90  C   -0.073098
    91  C   -0.159763
    92  C   -0.038195
    93  C    0.063650
    94  C    0.040174
    96  C    0.016007
   100  C   -0.088855
   101  C   -0.053909
   102  C   -0.199592
   103  C    0.038642
   105  C    0.083345
   106  C   -0.006976
   110  C    0.565187
   111  F   -0.188218
   112  F   -0.187207
   113  F   -0.190402
   114  C    0.559936
   115  F   -0.186037
   116  F   -0.191041
   117  F   -0.191704
 Electronic spatial extent (au):  <R**2>=          69662.2943
 Charge=             -0.0000 electrons
 Dipole moment (field-independent basis, Debye):
    X=             11.3013    Y=             -4.7936    Z=             10.1148  Tot=             15.9062
 Quadrupole moment (field-independent basis, Debye-Ang):
   XX=           -439.7898   YY=           -455.0045   ZZ=           -447.3182
   XY=            -26.4217   XZ=              7.3921   YZ=            -22.0315
 Traceless Quadrupole moment (field-independent basis, Debye-Ang):
   XX=              7.5810   YY=             -7.6337   ZZ=              0.0527
   XY=            -26.4217   XZ=              7.3921   YZ=            -22.0315
 Octapole moment (field-independent basis, Debye-Ang**2):
  XXX=            434.0192  YYY=            440.8365  ZZZ=            -99.5579  XYY=           -203.6598
  XXY=            -89.3148  XXZ=              4.8598  XZZ=            -10.0250  YZZ=            -66.0262
  YYZ=             13.3007  XYZ=           -178.1180
 Hexadecapole moment (field-independent basis, Debye-Ang**3):
 XXXX=         -47744.6372 YYYY=         -34582.3069 ZZZZ=          -8567.6929 XXXY=            317.7693
 XXXZ=            434.6150 YYYX=            928.2563 YYYZ=             43.3901 ZZZX=           -252.0434
 ZZZY=            570.5173 XXYY=         -13309.7712 XXZZ=          -9315.1010 YYZZ=          -6891.5087
 XXYZ=            558.8423 YYXZ=            398.5801 ZZXY=            373.4842
 N-N= 1.523204631849D+04 E-N=-4.128996065382D+04  KE= 4.441717357167D+03
 Leave Link  601 at Sun Jan 26 10:47:19 2025, MaxMem=  7247757312 cpu:              27.5 elap:               1.5
 (Enter /cm/shared/apps/spack/cpu/opt/spack/linux-centos8-zen/gcc-8.3.1/gaussian-16.C.01-po5bqktfeugvmjyga3v7eigbecnokxng/g16/l9999.exe)
 Unable to Open any file for archive entry.
 1\1\GINC-EXP-1-29\SP\RB3LYP\def2TZVPP\C60H39F7I1N3O5S2\BIM12\26-Jan-20
 25\0\\#p b3lyp def2tzvpp scf=maxcycle=128 nosymm scrf=(smd,solvent=pro
 pylethanoate) empiricaldispersion=gd3bj\\Title Card Required\\0,1\C,0,
 1.971403,-1.713408,-0.237495\C,0,0.534835,-1.780951,-0.574722\C,0,-0.4
 07512,-2.183836,0.385131\C,0,0.088162,-2.600094,1.598279\C,0,1.530172,
 -2.634843,1.820116\N,0,2.409428,-2.153665,0.900909\H,0,-0.606396,-2.93
 3992,2.36654\C,0,2.960521,-1.130028,-1.165129\C,0,4.317026,-1.567823,-
 1.219911\C,0,5.240869,-0.818778,-1.950189\C,0,3.540755,0.75539,-2.6316
 4\C,0,4.864635,0.338165,-2.636109\H,0,6.272233,-1.169094,-2.009448\H,0
 ,5.610962,0.90912,-3.190794\H,0,3.202071,1.652333,-3.150021\C,0,2.6191
 29,0.014175,-1.908339\C,0,4.792051,-2.842274,-0.612366\C,0,5.995892,-2
 .884186,0.103614\C,0,4.089013,-4.036516,-0.818311\C,0,6.465747,-4.0871
 34,0.633694\H,0,6.565436,-1.965911,0.25102\C,0,4.560156,-5.237605,-0.2
 956\H,0,3.165939,-4.029193,-1.400924\C,0,5.747878,-5.266662,0.439501\H
 ,0,7.4019,-4.100385,1.194966\H,0,3.993859,-6.155186,-0.468518\H,0,6.11
 6021,-6.208642,0.850204\F,0,1.365342,0.444885,-1.892086\C,0,-1.869835,
 -2.271948,0.085298\H,0,-2.112979,-1.780425,-0.862564\H,0,-2.163223,-3.
 332972,0.044056\H,0,-2.444133,-1.784,0.885902\C,0,1.298209,-3.657893,4
 .064398\C,0,3.487963,-3.391415,3.057584\C,0,1.59239,-5.158794,4.195832
 \H,0,0.226854,-3.474102,3.969005\H,0,1.674789,-3.133745,4.954925\C,0,3
 .679088,-4.906153,3.232696\H,0,4.014458,-3.030214,2.168812\H,0,3.83287
 1,-2.867109,3.960656\H,0,1.19767,-5.686671,3.309072\H,0,1.083449,-5.53
 5861,5.091639\H,0,3.357864,-5.419993,2.308722\H,0,4.745798,-5.10451,3.
 397657\N,0,2.049716,-3.134618,2.925121\O,0,2.965829,-5.375249,4.342312
 \I,0,0.559243,-5.249141,-0.422118\H,0,0.208053,-1.516592,-1.579919\C,0
 ,-2.836363,6.888466,-0.990516\C,0,-2.814731,5.611383,-0.482694\C,0,-1.
 580572,4.938448,-0.258166\C,0,-0.373161,5.609358,-0.603991\C,0,-0.4250
 41,6.935041,-1.118748\C,0,-1.630519,7.563887,-1.303666\H,0,-3.792777,7
 .385498,-1.159937\H,0,-3.753652,5.104573,-0.25996\C,0,-1.512909,3.6050
 67,0.268503\C,0,0.86172,4.938616,-0.452243\H,0,0.513078,7.433812,-1.36
 999\H,0,-1.665991,8.579087,-1.701888\C,0,0.924332,3.63957,0.015906\C,0
 ,-0.287016,2.971733,0.387985\H,0,1.786313,5.452702,-0.720729\C,0,-2.79
 898,2.916212,0.626804\C,0,-3.253307,1.81431,-0.07713\C,0,-3.534846,3.3
 93573,1.762411\C,0,-4.450254,1.132559,0.315332\C,0,-4.757567,2.752893,
 2.113117\C,0,-3.07945,4.470272,2.574716\C,0,-5.189055,1.62736,1.374527
 \C,0,-5.507576,3.226673,3.225964\C,0,-3.819281,4.900948,3.650221\H,0,-
 2.129238,4.953187,2.346501\H,0,-6.109927,1.117905,1.664545\C,0,-5.0517
 03,4.281581,3.975899\H,0,-6.445952,2.72603,3.47242\H,0,-3.45161,5.7258
 36,4.262532\H,0,-5.628854,4.639336,4.829951\S,0,-0.316522,1.226641,0.8
 05115\O,0,-1.123895,1.094611,1.982871\O,0,1.020351,0.712289,0.920106\S
 ,0,-2.154091,1.157702,-1.332859\O,0,-1.749,2.265888,-2.142131\O,0,-2.7
 79446,0.072868,-2.02568\N,0,-0.973123,0.556737,-0.466078\C,0,2.218869,
 3.038158,0.125831\C,0,3.339896,2.587041,0.228558\C,0,-4.910634,-0.0784
 56,-0.296759\C,0,-5.330627,-1.132002,-0.727065\C,0,-5.704701,-2.386351
 ,-1.306886\C,0,-6.793365,-3.143215,-0.830454\C,0,-4.947142,-2.885508,-
 2.378242\C,0,-7.111744,-4.365501,-1.414182\C,0,-5.26954,-4.11024,-2.95
 6135\H,0,-4.107974,-2.290572,-2.742353\C,0,-6.349656,-4.850771,-2.4773
 44\H,0,-7.957013,-4.940259,-1.035343\H,0,-4.671945,-4.487888,-3.78709\
 H,0,-6.602761,-5.810016,-2.930417\C,0,4.58781,1.934961,0.481226\C,0,4.
 586954,0.808174,1.319761\C,0,5.809088,2.386986,-0.053854\C,0,5.782815,
 0.173769,1.641442\H,0,3.631084,0.456264,1.712511\C,0,6.999305,1.73468,
 0.255161\C,0,6.98863,0.633112,1.110704\H,0,5.773158,-0.689386,2.309412
 \H,0,7.937879,2.096042,-0.16533\H,0,7.926206,0.134343,1.361006\C,0,5.8
 17928,3.587434,-0.963651\F,0,7.048445,3.880233,-1.389323\F,0,5.341626,
 4.678465,-0.356566\F,0,5.064813,3.397033,-2.054058\C,0,-7.608028,-2.61
 7208,0.322002\F,0,-8.597606,-3.448637,0.654692\F,0,-8.166956,-1.435276
 ,0.042037\F,0,-6.863077,-2.437614,1.41879\\Version=ES64L-G16RevC.01\HF
 =-4644.959993\RMSD=4.225e-09\Dipole=4.4462761,-1.8859566,3.979458\Quad
 rupole=5.6363156,-5.6754629,0.0391473,-19.643902,5.4958361,-16.379845\
 PG=C01 [X(C60H39F7I1N3O5S2)]\\@
 The archive entry for this job was punched.


 THE UNDERLYING PHYSICAL LAWS NECESSARY FOR THE 
 MATHEMATICAL THEORY OF A LARGE PART OF PHYSICS AND THE
 WHOLE OF CHEMISTRY ARE THUS COMPLETELY KNOWN, AND THE
 DIFFICULTY IS ONLY THAT THE EXACT APPLICATION OF THESE
 LAWS LEADS TO EQUATIONS MUCH TOO COMPLICATED 
 TO BE SOLUBLE.

                                        -- P. A. M. DIRAC, 1929
 Job cpu time:       3 days  2 hours 47 minutes 59.2 seconds.
 Elapsed time:       0 days  2 hours 21 minutes 41.8 seconds.
 File lengths (MBytes):  RWF=   5953 Int=      0 D2E=      0 Chk=    522 Scr=      1
 Normal termination of Gaussian 16 at Sun Jan 26 10:47:19 2025.
