 Entering Gaussian System, Link 0=g16
 Initial command:
 /opt/packages/gaussian/g16RevC.01/g16/l1.exe "/local/Gau-82649.inp" -scrdir="/local/"
 Entering Link 1 = /opt/packages/gaussian/g16RevC.01/g16/l1.exe PID=     82650.
  
 Copyright (c) 1988-2019, Gaussian, Inc.  All Rights Reserved.
  
 This is part of the Gaussian(R) 16 program.  It is based on
 the Gaussian(R) 09 system (copyright 2009, Gaussian, Inc.),
 the Gaussian(R) 03 system (copyright 2003, Gaussian, Inc.),
 the Gaussian(R) 98 system (copyright 1998, Gaussian, Inc.),
 the Gaussian(R) 94 system (copyright 1995, Gaussian, Inc.),
 the Gaussian 92(TM) system (copyright 1992, Gaussian, Inc.),
 the Gaussian 90(TM) system (copyright 1990, Gaussian, Inc.),
 the Gaussian 88(TM) system (copyright 1988, Gaussian, Inc.),
 the Gaussian 86(TM) system (copyright 1986, Carnegie Mellon
 University), and the Gaussian 82(TM) system (copyright 1983,
 Carnegie Mellon University). Gaussian is a federally registered
 trademark of Gaussian, Inc.
  
 This software contains proprietary and confidential information,
 including trade secrets, belonging to Gaussian, Inc.
  
 This software is provided under written license and may be
 used, copied, transmitted, or stored only in accord with that
 written license.
  
 The following legend is applicable only to US Government
 contracts under FAR:
  
                    RESTRICTED RIGHTS LEGEND
  
 Use, reproduction and disclosure by the US Government is
 subject to restrictions as set forth in subparagraphs (a)
 and (c) of the Commercial Computer Software - Restricted
 Rights clause in FAR 52.227-19.
  
 Gaussian, Inc.
 340 Quinnipiac St., Bldg. 40, Wallingford CT 06492
  
  
 ---------------------------------------------------------------
 Warning -- This program may not be used in any manner that
 competes with the business of Gaussian, Inc. or will provide
 assistance to any competitor of Gaussian, Inc.  The licensee
 of this program is prohibited from giving any competitor of
 Gaussian, Inc. access to this program.  By using this program,
 the user acknowledges that Gaussian, Inc. is engaged in the
 business of creating and licensing software in the field of
 computational chemistry and represents and warrants to the
 licensee that it is not a competitor of Gaussian, Inc. and that
 it will not use this program in any manner prohibited above.
 ---------------------------------------------------------------
  

 Cite this work as:
 Gaussian 16, Revision C.01,
 M. J. Frisch, G. W. Trucks, H. B. Schlegel, G. E. Scuseria, 
 M. A. Robb, J. R. Cheeseman, G. Scalmani, V. Barone, 
 G. A. Petersson, H. Nakatsuji, X. Li, M. Caricato, A. V. Marenich, 
 J. Bloino, B. G. Janesko, R. Gomperts, B. Mennucci, H. P. Hratchian, 
 J. V. Ortiz, A. F. Izmaylov, J. L. Sonnenberg, D. Williams-Young, 
 F. Ding, F. Lipparini, F. Egidi, J. Goings, B. Peng, A. Petrone, 
 T. Henderson, D. Ranasinghe, V. G. Zakrzewski, J. Gao, N. Rega, 
 G. Zheng, W. Liang, M. Hada, M. Ehara, K. Toyota, R. Fukuda, 
 J. Hasegawa, M. Ishida, T. Nakajima, Y. Honda, O. Kitao, H. Nakai, 
 T. Vreven, K. Throssell, J. A. Montgomery, Jr., J. E. Peralta, 
 F. Ogliaro, M. J. Bearpark, J. J. Heyd, E. N. Brothers, K. N. Kudin, 
 V. N. Staroverov, T. A. Keith, R. Kobayashi, J. Normand, 
 K. Raghavachari, A. P. Rendell, J. C. Burant, S. S. Iyengar, 
 J. Tomasi, M. Cossi, J. M. Millam, M. Klene, C. Adamo, R. Cammi, 
 J. W. Ochterski, R. L. Martin, K. Morokuma, O. Farkas, 
 J. B. Foresman, and D. J. Fox, Gaussian, Inc., Wallingford CT, 2019.
 
 ******************************************
 Gaussian 16:  ES64L-G16RevC.01  3-Jul-2019
                12-Jun-2024 
 ******************************************
 %nprocshared=32
 Will use up to   32 processors via shared memory.
 %mem=64GB
 ----------------------------------------------------------------------
 #p b3lyp def2tzvpp scf=maxcycle=128 nosymm scrf=(smd,solvent=propyleth
 anoate) empiricaldispersion=gd3bj
 ----------------------------------------------------------------------
 1/38=1,172=1/1;
 2/12=2,15=1,17=6,18=5,40=1/2;
 3/5=44,7=202,11=2,25=1,30=1,70=32201,72=169,74=-5,124=41/1,2,3;
 4//1;
 5/5=2,7=128,38=5,53=169/2;
 6/7=2,8=2,9=2,10=2,28=1/1;
 99/5=1,9=1/99;
 Leave Link    1 at Wed Jun 12 15:29:59 2024, MaxMem=  8589934592 cpu:               1.0 elap:               0.0
 (Enter /opt/packages/gaussian/g16RevC.01/g16/l101.exe)
 -------------------
 Title Card Required
 -------------------
 Symbolic Z-matrix:
 Charge =  0 Multiplicity = 1
 C                     1.34332  -2.38322  -0.29148 
 C                    -0.01919  -2.91206  -0.27193 
 C                    -0.54927  -3.23366   1.05113 
 C                     0.29218  -3.24571   2.12071 
 C                     1.68307  -2.93888   1.92357 
 N                     2.14025  -2.46682   0.73203 
 H                    -0.10006  -3.49643   3.10247 
 C                     1.90825  -1.73796  -1.51552 
 C                     3.27979  -1.84303  -1.87262 
 C                     3.7712   -1.10594  -2.95639 
 C                     1.60414  -0.15729  -3.3779 
 C                     2.94769  -0.26757  -3.70477 
 H                     4.82259  -1.21368  -3.22691 
 H                     3.35299   0.28915  -4.55084 
 H                     0.91416   0.48648  -3.92498 
 C                     1.11545  -0.8883   -2.30151 
 C                     4.25906  -2.73246  -1.1813 
 C                     5.47235  -2.20073  -0.72681 
 C                     4.03042  -4.10826  -1.04508 
 C                     6.4305   -3.02314  -0.13114 
 H                     5.65908  -1.12926  -0.82543 
 C                     4.98676  -4.92862  -0.45214 
 H                     3.09456  -4.53574  -1.41023 
 C                     6.19063  -4.38909   0.00887 
 H                     7.36715  -2.59073   0.22581 
 H                     4.79288  -5.99858  -0.35496 
 H                     6.9384   -5.03402   0.47427 
 F                    -0.17792  -0.72615  -2.02279 
 C                    -1.99388  -3.59077   1.17832 
 H                    -2.61781  -2.81246   0.71568 
 H                    -2.18986  -4.53698   0.64901 
 H                    -2.28065  -3.71182   2.23042 
 C                     2.2978   -3.46186   4.26699 
 C                     4.0131   -2.78323   2.68322 
 C                     3.21319  -4.60701   4.68313 
 H                     1.25474  -3.76386   4.38173 
 H                     2.48242  -2.58861   4.91349 
 C                     4.84219  -3.96361   3.16993 
 H                     4.19407  -2.58858   1.62213 
 H                     4.26878  -1.88396   3.26736 
 H                     2.96318  -5.5065    4.0882 
 H                     3.05279  -4.83466   5.74511 
 H                     4.63772  -4.84204   2.52859 
 H                     5.91013  -3.71855   3.09559 
 N                     2.59097  -3.06964   2.89068 
 O                     4.56428  -4.26807   4.51493 
 I                     0.13888  -4.91038  -1.39126 
 H                    -0.73422  -2.41149  -0.92437 
 C                    -3.20264   5.20817  -3.19609 
 C                    -3.23999   4.31628  -2.1518 
 C                    -2.07158   3.60381  -1.75357 
 C                    -0.86643   3.81983  -2.48683 
 C                    -0.85677   4.76025  -3.55479 
 C                    -1.99578   5.44332  -3.90095 
 H                    -4.11147   5.73644  -3.48885 
 H                    -4.17912   4.13807  -1.62741 
 C                    -2.07714   2.66584  -0.66541 
 C                     0.3004    3.08219  -2.15044 
 H                     0.07728   4.9193   -4.09795 
 H                    -1.9794    6.1592   -4.72448 
 C                     0.26058   2.13689  -1.15947 
 C                    -0.93246   1.92464  -0.43001 
 H                     1.2217    3.26501  -2.70796 
 C                    -3.30931   2.50331   0.16964 
 C                    -3.9884    1.30015   0.2473 
 C                    -3.79386   3.61158   0.94507 
 C                    -5.17332   1.15141   1.00525 
 C                    -5.00104   3.46755   1.6929 
 C                    -3.09741   4.85302   1.02293 
 C                    -5.68258   2.22108   1.69364 
 C                    -5.49253   4.56986   2.44708 
 C                    -3.59084   5.89486   1.77013 
 H                    -2.15237   4.97103   0.49249 
 H                    -6.60554   2.12405   2.26882 
 C                    -4.80858   5.7591    2.48235 
 H                    -6.42268   4.44343   3.00516 
 H                    -3.03666   6.8335    1.82091 
 H                    -5.19147   6.5972    3.06704 
 S                    -0.93991   0.6083    0.77544 
 O                    -1.34009   1.18986   2.02357 
 O                     0.36741   0.00894   0.74535 
 S                    -3.31114  -0.15599  -0.52662 
 O                    -3.08165   0.17325  -1.90672 
 O                    -4.22299  -1.23934  -0.28475 
 N                    -1.98191  -0.45598   0.25825 
 N                     0.13108  -7.0295   -2.65865 
 C                     0.0761   -6.98639  -3.96994 
 C                    -0.3704   -8.28618  -4.60455 
 C                    -0.49923  -9.21211  -3.39883 
 C                    -0.23851  -8.29696  -2.20091 
 O                    -0.32719  -8.60098  -1.04102 
 O                     0.36263  -5.94021  -4.62334 
 H                    -1.32398  -8.11158  -5.12646 
 H                     0.36484  -8.60642  -5.35755 
 H                     0.24951  -10.01638  -3.39063 
 H                    -1.48827  -9.67547  -3.29121 
 C                    -1.47456  -5.18641  -7.17652 
 C                    -2.27679  -5.34467  -8.29005 
 C                    -1.91988  -6.31015  -9.2545 
 C                    -0.76153  -7.04711  -9.07119 
 C                     0.0297   -6.83737  -7.91503 
 N                    -0.37695  -5.95067  -6.99009 
 H                    -0.44258  -7.7478   -9.84044 
 C                    -1.75625  -4.17379  -6.12141 
 C                    -0.76814  -3.29359  -5.62346 
 C                    -1.10301  -2.41087  -4.5912 
 C                    -3.36346  -3.24031  -4.52279 
 C                    -2.38378  -2.3754   -4.04244 
 H                    -0.34392  -1.71774  -4.23364 
 H                    -2.61867  -1.65544  -3.25396 
 H                    -4.37673  -3.25332  -4.1203 
 C                    -3.03008  -4.11309  -5.54808 
 C                     0.62063  -3.25843  -6.16499 
 C                     1.71057  -3.28822  -5.28401 
 C                     0.86728  -3.1827   -7.54382 
 C                     3.01787  -3.26582  -5.77273 
 H                     1.52858  -3.35811  -4.20802 
 C                     2.17233  -3.15241  -8.03055 
 H                     0.02594  -3.14342  -8.23993 
 C                     3.25289  -3.19999  -7.14597 
 H                     3.85415  -3.30624  -5.07184 
 H                     2.34754  -3.0878   -9.10613 
 H                     4.27537  -3.18382  -7.52815 
 F                    -3.97215  -4.95688  -5.99089 
 C                    -2.77511  -6.49597  -10.473 
 H                    -3.77749  -6.84226  -10.1797 
 H                    -2.90505  -5.53929  -10.99937 
 H                    -2.34029  -7.22633  -11.16645 
 C                     1.60106  -8.71391  -8.3557 
 C                     2.27993  -6.89998  -6.88479 
 C                     2.85986  -8.47555  -9.17576 
 H                     0.78695  -9.10132  -8.97712 
 H                     1.82375  -9.47361  -7.58601 
 C                     3.52155  -6.75453  -7.75894 
 H                     1.98785  -5.90962  -6.51399 
 H                     2.50579  -7.54604  -6.01826 
 H                     2.64014  -7.76429  -9.9959 
 H                     3.21499  -9.41786  -9.61423 
 H                     3.32234  -5.9939   -8.53896 
 H                     4.36958  -6.41434  -7.14878 
 N                     1.20091  -7.49104  -7.67403 
 O                     3.88827  -7.97443  -8.35637 
 H                    -3.1626   -4.72357  -8.42082 
 H                     0.09625  -5.95997  -5.73997 
 H                     1.13561   1.53815  -0.90545 
 H                    -5.66122   0.17715   1.01921 
 
 ITRead=  0  0  0  0  0  0  0  0  0  0  0  0  0  0  0  0  0  0  0  0
 ITRead=  0  0  0  0  0  0  0  0  0  0  0  0  0  0  0  0  0  0  0  0
 ITRead=  0  0  0  0  0  0  0  0  0  0  0  0  0  0  0  0  0  0  0  0
 ITRead=  0  0  0  0  0  0  0  0  0  0  0  0  0  0  0  0  0  0  0  0
 ITRead=  0  0  0  0  0  0  0  0  0  0  0  0  0  0  0  0  0  0  0  0
 ITRead=  0  0  0  0  0  0  0  0  0  0  0  0  0  0  0  0  0  0  0  0
 ITRead=  0  0  0  0  0  0  0  0  0  0  0  0  0  0  0  0  0  0  0  0
 ITRead=  0  0  0  0  0  0
 MicOpt= -1 -1 -1 -1 -1 -1 -1 -1 -1 -1 -1 -1 -1 -1 -1 -1 -1 -1 -1 -1
 MicOpt= -1 -1 -1 -1 -1 -1 -1 -1 -1 -1 -1 -1 -1 -1 -1 -1 -1 -1 -1 -1
 MicOpt= -1 -1 -1 -1 -1 -1 -1 -1 -1 -1 -1 -1 -1 -1 -1 -1 -1 -1 -1 -1
 MicOpt= -1 -1 -1 -1 -1 -1 -1 -1 -1 -1 -1 -1 -1 -1 -1 -1 -1 -1 -1 -1
 MicOpt= -1 -1 -1 -1 -1 -1 -1 -1 -1 -1 -1 -1 -1 -1 -1 -1 -1 -1 -1 -1
 MicOpt= -1 -1 -1 -1 -1 -1 -1 -1 -1 -1 -1 -1 -1 -1 -1 -1 -1 -1 -1 -1
 MicOpt= -1 -1 -1 -1 -1 -1 -1 -1 -1 -1 -1 -1 -1 -1 -1 -1 -1 -1 -1 -1
 MicOpt= -1 -1 -1 -1 -1 -1
 NAtoms=    146 NQM=      146 NQMF=       0 NMMI=      0 NMMIF=      0
                NMic=       0 NMicF=      0.
                    Isotopes and Nuclear Properties:
 (Nuclear quadrupole moments (NQMom) in fm**2, nuclear magnetic moments (NMagM)
  in nuclear magnetons)

  Atom         1           2           3           4           5           6           7           8           9          10
 IAtWgt=          12          12          12          12          12          14           1          12          12          12
 AtmWgt=  12.0000000  12.0000000  12.0000000  12.0000000  12.0000000  14.0030740   1.0078250  12.0000000  12.0000000  12.0000000
 NucSpn=           0           0           0           0           0           2           1           0           0           0
 AtZEff=   0.0000000   0.0000000   0.0000000   0.0000000   0.0000000   0.0000000   0.0000000   0.0000000   0.0000000   0.0000000
 NQMom=    0.0000000   0.0000000   0.0000000   0.0000000   0.0000000   2.0440000   0.0000000   0.0000000   0.0000000   0.0000000
 NMagM=    0.0000000   0.0000000   0.0000000   0.0000000   0.0000000   0.4037610   2.7928460   0.0000000   0.0000000   0.0000000
 AtZNuc=   6.0000000   6.0000000   6.0000000   6.0000000   6.0000000   7.0000000   1.0000000   6.0000000   6.0000000   6.0000000

  Atom        11          12          13          14          15          16          17          18          19          20
 IAtWgt=          12          12           1           1           1          12          12          12          12          12
 AtmWgt=  12.0000000  12.0000000   1.0078250   1.0078250   1.0078250  12.0000000  12.0000000  12.0000000  12.0000000  12.0000000
 NucSpn=           0           0           1           1           1           0           0           0           0           0
 AtZEff=   0.0000000   0.0000000   0.0000000   0.0000000   0.0000000   0.0000000   0.0000000   0.0000000   0.0000000   0.0000000
 NQMom=    0.0000000   0.0000000   0.0000000   0.0000000   0.0000000   0.0000000   0.0000000   0.0000000   0.0000000   0.0000000
 NMagM=    0.0000000   0.0000000   2.7928460   2.7928460   2.7928460   0.0000000   0.0000000   0.0000000   0.0000000   0.0000000
 AtZNuc=   6.0000000   6.0000000   1.0000000   1.0000000   1.0000000   6.0000000   6.0000000   6.0000000   6.0000000   6.0000000

  Atom        21          22          23          24          25          26          27          28          29          30
 IAtWgt=           1          12           1          12           1           1           1          19          12           1
 AtmWgt=   1.0078250  12.0000000   1.0078250  12.0000000   1.0078250   1.0078250   1.0078250  18.9984032  12.0000000   1.0078250
 NucSpn=           1           0           1           0           1           1           1           1           0           1
 AtZEff=   0.0000000   0.0000000   0.0000000   0.0000000   0.0000000   0.0000000   0.0000000   0.0000000   0.0000000   0.0000000
 NQMom=    0.0000000   0.0000000   0.0000000   0.0000000   0.0000000   0.0000000   0.0000000   0.0000000   0.0000000   0.0000000
 NMagM=    2.7928460   0.0000000   2.7928460   0.0000000   2.7928460   2.7928460   2.7928460   2.6288670   0.0000000   2.7928460
 AtZNuc=   1.0000000   6.0000000   1.0000000   6.0000000   1.0000000   1.0000000   1.0000000   9.0000000   6.0000000   1.0000000

  Atom        31          32          33          34          35          36          37          38          39          40
 IAtWgt=           1           1          12          12          12           1           1          12           1           1
 AtmWgt=   1.0078250   1.0078250  12.0000000  12.0000000  12.0000000   1.0078250   1.0078250  12.0000000   1.0078250   1.0078250
 NucSpn=           1           1           0           0           0           1           1           0           1           1
 AtZEff=   0.0000000   0.0000000   0.0000000   0.0000000   0.0000000   0.0000000   0.0000000   0.0000000   0.0000000   0.0000000
 NQMom=    0.0000000   0.0000000   0.0000000   0.0000000   0.0000000   0.0000000   0.0000000   0.0000000   0.0000000   0.0000000
 NMagM=    2.7928460   2.7928460   0.0000000   0.0000000   0.0000000   2.7928460   2.7928460   0.0000000   2.7928460   2.7928460
 AtZNuc=   1.0000000   1.0000000   6.0000000   6.0000000   6.0000000   1.0000000   1.0000000   6.0000000   1.0000000   1.0000000

  Atom        41          42          43          44          45          46          47          48          49          50
 IAtWgt=           1           1           1           1          14          16         127           1          12          12
 AtmWgt=   1.0078250   1.0078250   1.0078250   1.0078250  14.0030740  15.9949146 126.9004000   1.0078250  12.0000000  12.0000000
 NucSpn=           1           1           1           1           2           0           5           1           0           0
 AtZEff=   0.0000000   0.0000000   0.0000000   0.0000000   0.0000000   0.0000000   0.0000000   0.0000000   0.0000000   0.0000000
 NQMom=    0.0000000   0.0000000   0.0000000   0.0000000   2.0440000   0.0000000 -71.0000000   0.0000000   0.0000000   0.0000000
 NMagM=    2.7928460   2.7928460   2.7928460   2.7928460   0.4037610   0.0000000   2.8132800   2.7928460   0.0000000   0.0000000
 AtZNuc=   1.0000000   1.0000000   1.0000000   1.0000000   7.0000000   8.0000000  53.0000000   1.0000000   6.0000000   6.0000000

  Atom        51          52          53          54          55          56          57          58          59          60
 IAtWgt=          12          12          12          12           1           1          12          12           1           1
 AtmWgt=  12.0000000  12.0000000  12.0000000  12.0000000   1.0078250   1.0078250  12.0000000  12.0000000   1.0078250   1.0078250
 NucSpn=           0           0           0           0           1           1           0           0           1           1
 AtZEff=   0.0000000   0.0000000   0.0000000   0.0000000   0.0000000   0.0000000   0.0000000   0.0000000   0.0000000   0.0000000
 NQMom=    0.0000000   0.0000000   0.0000000   0.0000000   0.0000000   0.0000000   0.0000000   0.0000000   0.0000000   0.0000000
 NMagM=    0.0000000   0.0000000   0.0000000   0.0000000   2.7928460   2.7928460   0.0000000   0.0000000   2.7928460   2.7928460
 AtZNuc=   6.0000000   6.0000000   6.0000000   6.0000000   1.0000000   1.0000000   6.0000000   6.0000000   1.0000000   1.0000000

  Atom        61          62          63          64          65          66          67          68          69          70
 IAtWgt=          12          12           1          12          12          12          12          12          12          12
 AtmWgt=  12.0000000  12.0000000   1.0078250  12.0000000  12.0000000  12.0000000  12.0000000  12.0000000  12.0000000  12.0000000
 NucSpn=           0           0           1           0           0           0           0           0           0           0
 AtZEff=   0.0000000   0.0000000   0.0000000   0.0000000   0.0000000   0.0000000   0.0000000   0.0000000   0.0000000   0.0000000
 NQMom=    0.0000000   0.0000000   0.0000000   0.0000000   0.0000000   0.0000000   0.0000000   0.0000000   0.0000000   0.0000000
 NMagM=    0.0000000   0.0000000   2.7928460   0.0000000   0.0000000   0.0000000   0.0000000   0.0000000   0.0000000   0.0000000
 AtZNuc=   6.0000000   6.0000000   1.0000000   6.0000000   6.0000000   6.0000000   6.0000000   6.0000000   6.0000000   6.0000000

  Atom        71          72          73          74          75          76          77          78          79          80
 IAtWgt=          12          12           1           1          12           1           1           1          32          16
 AtmWgt=  12.0000000  12.0000000   1.0078250   1.0078250  12.0000000   1.0078250   1.0078250   1.0078250  31.9720718  15.9949146
 NucSpn=           0           0           1           1           0           1           1           1           0           0
 AtZEff=   0.0000000   0.0000000   0.0000000   0.0000000   0.0000000   0.0000000   0.0000000   0.0000000   0.0000000   0.0000000
 NQMom=    0.0000000   0.0000000   0.0000000   0.0000000   0.0000000   0.0000000   0.0000000   0.0000000   0.0000000   0.0000000
 NMagM=    0.0000000   0.0000000   2.7928460   2.7928460   0.0000000   2.7928460   2.7928460   2.7928460   0.0000000   0.0000000
 AtZNuc=   6.0000000   6.0000000   1.0000000   1.0000000   6.0000000   1.0000000   1.0000000   1.0000000  16.0000000   8.0000000

  Atom        81          82          83          84          85          86          87          88          89          90
 IAtWgt=          16          32          16          16          14          14          12          12          12          12
 AtmWgt=  15.9949146  31.9720718  15.9949146  15.9949146  14.0030740  14.0030740  12.0000000  12.0000000  12.0000000  12.0000000
 NucSpn=           0           0           0           0           2           2           0           0           0           0
 AtZEff=   0.0000000   0.0000000   0.0000000   0.0000000   0.0000000   0.0000000   0.0000000   0.0000000   0.0000000   0.0000000
 NQMom=    0.0000000   0.0000000   0.0000000   0.0000000   2.0440000   2.0440000   0.0000000   0.0000000   0.0000000   0.0000000
 NMagM=    0.0000000   0.0000000   0.0000000   0.0000000   0.4037610   0.4037610   0.0000000   0.0000000   0.0000000   0.0000000
 AtZNuc=   8.0000000  16.0000000   8.0000000   8.0000000   7.0000000   7.0000000   6.0000000   6.0000000   6.0000000   6.0000000

  Atom        91          92          93          94          95          96          97          98          99         100
 IAtWgt=          16          16           1           1           1           1          12          12          12          12
 AtmWgt=  15.9949146  15.9949146   1.0078250   1.0078250   1.0078250   1.0078250  12.0000000  12.0000000  12.0000000  12.0000000
 NucSpn=           0           0           1           1           1           1           0           0           0           0
 AtZEff=   0.0000000   0.0000000   0.0000000   0.0000000   0.0000000   0.0000000   0.0000000   0.0000000   0.0000000   0.0000000
 NQMom=    0.0000000   0.0000000   0.0000000   0.0000000   0.0000000   0.0000000   0.0000000   0.0000000   0.0000000   0.0000000
 NMagM=    0.0000000   0.0000000   2.7928460   2.7928460   2.7928460   2.7928460   0.0000000   0.0000000   0.0000000   0.0000000
 AtZNuc=   8.0000000   8.0000000   1.0000000   1.0000000   1.0000000   1.0000000   6.0000000   6.0000000   6.0000000   6.0000000

  Atom       101         102         103         104         105         106         107         108         109         110
 IAtWgt=          12          14           1          12          12          12          12          12           1           1
 AtmWgt=  12.0000000  14.0030740   1.0078250  12.0000000  12.0000000  12.0000000  12.0000000  12.0000000   1.0078250   1.0078250
 NucSpn=           0           2           1           0           0           0           0           0           1           1
 AtZEff=   0.0000000   0.0000000   0.0000000   0.0000000   0.0000000   0.0000000   0.0000000   0.0000000   0.0000000   0.0000000
 NQMom=    0.0000000   2.0440000   0.0000000   0.0000000   0.0000000   0.0000000   0.0000000   0.0000000   0.0000000   0.0000000
 NMagM=    0.0000000   0.4037610   2.7928460   0.0000000   0.0000000   0.0000000   0.0000000   0.0000000   2.7928460   2.7928460
 AtZNuc=   6.0000000   7.0000000   1.0000000   6.0000000   6.0000000   6.0000000   6.0000000   6.0000000   1.0000000   1.0000000

  Atom       111         112         113         114         115         116         117         118         119         120
 IAtWgt=           1          12          12          12          12          12           1          12           1          12
 AtmWgt=   1.0078250  12.0000000  12.0000000  12.0000000  12.0000000  12.0000000   1.0078250  12.0000000   1.0078250  12.0000000
 NucSpn=           1           0           0           0           0           0           1           0           1           0
 AtZEff=   0.0000000   0.0000000   0.0000000   0.0000000   0.0000000   0.0000000   0.0000000   0.0000000   0.0000000   0.0000000
 NQMom=    0.0000000   0.0000000   0.0000000   0.0000000   0.0000000   0.0000000   0.0000000   0.0000000   0.0000000   0.0000000
 NMagM=    2.7928460   0.0000000   0.0000000   0.0000000   0.0000000   0.0000000   2.7928460   0.0000000   2.7928460   0.0000000
 AtZNuc=   1.0000000   6.0000000   6.0000000   6.0000000   6.0000000   6.0000000   1.0000000   6.0000000   1.0000000   6.0000000

  Atom       121         122         123         124         125         126         127         128         129         130
 IAtWgt=           1           1           1          19          12           1           1           1          12          12
 AtmWgt=   1.0078250   1.0078250   1.0078250  18.9984032  12.0000000   1.0078250   1.0078250   1.0078250  12.0000000  12.0000000
 NucSpn=           1           1           1           1           0           1           1           1           0           0
 AtZEff=   0.0000000   0.0000000   0.0000000   0.0000000   0.0000000   0.0000000   0.0000000   0.0000000   0.0000000   0.0000000
 NQMom=    0.0000000   0.0000000   0.0000000   0.0000000   0.0000000   0.0000000   0.0000000   0.0000000   0.0000000   0.0000000
 NMagM=    2.7928460   2.7928460   2.7928460   2.6288670   0.0000000   2.7928460   2.7928460   2.7928460   0.0000000   0.0000000
 AtZNuc=   1.0000000   1.0000000   1.0000000   9.0000000   6.0000000   1.0000000   1.0000000   1.0000000   6.0000000   6.0000000

  Atom       131         132         133         134         135         136         137         138         139         140
 IAtWgt=          12           1           1          12           1           1           1           1           1           1
 AtmWgt=  12.0000000   1.0078250   1.0078250  12.0000000   1.0078250   1.0078250   1.0078250   1.0078250   1.0078250   1.0078250
 NucSpn=           0           1           1           0           1           1           1           1           1           1
 AtZEff=   0.0000000   0.0000000   0.0000000   0.0000000   0.0000000   0.0000000   0.0000000   0.0000000   0.0000000   0.0000000
 NQMom=    0.0000000   0.0000000   0.0000000   0.0000000   0.0000000   0.0000000   0.0000000   0.0000000   0.0000000   0.0000000
 NMagM=    0.0000000   2.7928460   2.7928460   0.0000000   2.7928460   2.7928460   2.7928460   2.7928460   2.7928460   2.7928460
 AtZNuc=   6.0000000   1.0000000   1.0000000   6.0000000   1.0000000   1.0000000   1.0000000   1.0000000   1.0000000   1.0000000

  Atom       141         142         143         144         145         146
 IAtWgt=          14          16           1           1           1           1
 AtmWgt=  14.0030740  15.9949146   1.0078250   1.0078250   1.0078250   1.0078250
 NucSpn=           2           0           1           1           1           1
 AtZEff=   0.0000000   0.0000000   0.0000000   0.0000000   0.0000000   0.0000000
 NQMom=    2.0440000   0.0000000   0.0000000   0.0000000   0.0000000   0.0000000
 NMagM=    0.4037610   0.0000000   2.7928460   2.7928460   2.7928460   2.7928460
 AtZNuc=   7.0000000   8.0000000   1.0000000   1.0000000   1.0000000   1.0000000
 Leave Link  101 at Wed Jun 12 15:29:59 2024, MaxMem=  8589934592 cpu:               2.3 elap:               0.1
 (Enter /opt/packages/gaussian/g16RevC.01/g16/l202.exe)
 Symmetry turned off by external request.
 Stoichiometry    C68H59F2IN6O8S2
 Framework group  C1[X(C68H59F2IN6O8S2)]
 Deg. of freedom   432
 Full point group                 C1      NOp   1
                          Input orientation:                          
 ---------------------------------------------------------------------
 Center     Atomic      Atomic             Coordinates (Angstroms)
 Number     Number       Type             X           Y           Z
 ---------------------------------------------------------------------
      1          6           0        1.343317   -2.383215   -0.291481
      2          6           0       -0.019189   -2.912064   -0.271931
      3          6           0       -0.549265   -3.233662    1.051131
      4          6           0        0.292180   -3.245711    2.120707
      5          6           0        1.683066   -2.938876    1.923568
      6          7           0        2.140247   -2.466815    0.732025
      7          1           0       -0.100058   -3.496426    3.102472
      8          6           0        1.908249   -1.737960   -1.515520
      9          6           0        3.279789   -1.843027   -1.872622
     10          6           0        3.771202   -1.105936   -2.956392
     11          6           0        1.604139   -0.157292   -3.377904
     12          6           0        2.947687   -0.267570   -3.704766
     13          1           0        4.822587   -1.213677   -3.226914
     14          1           0        3.352992    0.289154   -4.550836
     15          1           0        0.914163    0.486482   -3.924982
     16          6           0        1.115454   -0.888300   -2.301505
     17          6           0        4.259056   -2.732455   -1.181297
     18          6           0        5.472350   -2.200730   -0.726810
     19          6           0        4.030421   -4.108261   -1.045078
     20          6           0        6.430501   -3.023141   -0.131140
     21          1           0        5.659078   -1.129264   -0.825432
     22          6           0        4.986760   -4.928616   -0.452139
     23          1           0        3.094556   -4.535738   -1.410230
     24          6           0        6.190627   -4.389093    0.008874
     25          1           0        7.367146   -2.590733    0.225807
     26          1           0        4.792878   -5.998582   -0.354956
     27          1           0        6.938399   -5.034020    0.474266
     28          9           0       -0.177915   -0.726153   -2.022793
     29          6           0       -1.993881   -3.590773    1.178323
     30          1           0       -2.617805   -2.812457    0.715676
     31          1           0       -2.189863   -4.536976    0.649011
     32          1           0       -2.280652   -3.711822    2.230416
     33          6           0        2.297798   -3.461859    4.266991
     34          6           0        4.013100   -2.783232    2.683221
     35          6           0        3.213189   -4.607008    4.683131
     36          1           0        1.254736   -3.763857    4.381728
     37          1           0        2.482419   -2.588607    4.913490
     38          6           0        4.842192   -3.963609    3.169928
     39          1           0        4.194066   -2.588580    1.622126
     40          1           0        4.268779   -1.883960    3.267358
     41          1           0        2.963175   -5.506503    4.088201
     42          1           0        3.052785   -4.834655    5.745106
     43          1           0        4.637715   -4.842038    2.528587
     44          1           0        5.910129   -3.718551    3.095586
     45          7           0        2.590973   -3.069638    2.890677
     46          8           0        4.564278   -4.268066    4.514931
     47         53           0        0.138880   -4.910382   -1.391258
     48          1           0       -0.734219   -2.411490   -0.924371
     49          6           0       -3.202641    5.208165   -3.196094
     50          6           0       -3.239986    4.316279   -2.151796
     51          6           0       -2.071578    3.603805   -1.753567
     52          6           0       -0.866432    3.819828   -2.486825
     53          6           0       -0.856774    4.760254   -3.554787
     54          6           0       -1.995777    5.443323   -3.900953
     55          1           0       -4.111467    5.736441   -3.488846
     56          1           0       -4.179118    4.138070   -1.627408
     57          6           0       -2.077143    2.665843   -0.665411
     58          6           0        0.300401    3.082192   -2.150445
     59          1           0        0.077278    4.919301   -4.097946
     60          1           0       -1.979397    6.159195   -4.724480
     61          6           0        0.260579    2.136889   -1.159473
     62          6           0       -0.932462    1.924636   -0.430007
     63          1           0        1.221700    3.265010   -2.707960
     64          6           0       -3.309309    2.503310    0.169640
     65          6           0       -3.988403    1.300146    0.247299
     66          6           0       -3.793862    3.611583    0.945070
     67          6           0       -5.173317    1.151412    1.005246
     68          6           0       -5.001040    3.467554    1.692899
     69          6           0       -3.097408    4.853022    1.022927
     70          6           0       -5.682582    2.221078    1.693643
     71          6           0       -5.492525    4.569863    2.447084
     72          6           0       -3.590837    5.894855    1.770132
     73          1           0       -2.152371    4.971033    0.492488
     74          1           0       -6.605536    2.124045    2.268822
     75          6           0       -4.808584    5.759102    2.482348
     76          1           0       -6.422678    4.443430    3.005157
     77          1           0       -3.036661    6.833496    1.820905
     78          1           0       -5.191470    6.597198    3.067044
     79         16           0       -0.939906    0.608300    0.775435
     80          8           0       -1.340094    1.189859    2.023570
     81          8           0        0.367407    0.008942    0.745346
     82         16           0       -3.311140   -0.155988   -0.526622
     83          8           0       -3.081652    0.173253   -1.906723
     84          8           0       -4.222992   -1.239343   -0.284746
     85          7           0       -1.981911   -0.455978    0.258245
     86          7           0        0.131083   -7.029497   -2.658649
     87          6           0        0.076103   -6.986393   -3.969937
     88          6           0       -0.370403   -8.286185   -4.604550
     89          6           0       -0.499230   -9.212113   -3.398829
     90          6           0       -0.238513   -8.296962   -2.200912
     91          8           0       -0.327188   -8.600975   -1.041016
     92          8           0        0.362627   -5.940209   -4.623340
     93          1           0       -1.323977   -8.111577   -5.126458
     94          1           0        0.364838   -8.606420   -5.357545
     95          1           0        0.249509  -10.016379   -3.390631
     96          1           0       -1.488273   -9.675468   -3.291212
     97          6           0       -1.474559   -5.186408   -7.176516
     98          6           0       -2.276786   -5.344674   -8.290054
     99          6           0       -1.919884   -6.310152   -9.254495
    100          6           0       -0.761526   -7.047113   -9.071191
    101          6           0        0.029698   -6.837374   -7.915031
    102          7           0       -0.376950   -5.950673   -6.990090
    103          1           0       -0.442583   -7.747803   -9.840435
    104          6           0       -1.756253   -4.173790   -6.121411
    105          6           0       -0.768139   -3.293590   -5.623456
    106          6           0       -1.103006   -2.410865   -4.591195
    107          6           0       -3.363459   -3.240306   -4.522791
    108          6           0       -2.383778   -2.375396   -4.042435
    109          1           0       -0.343921   -1.717735   -4.233636
    110          1           0       -2.618665   -1.655437   -3.253965
    111          1           0       -4.376728   -3.253324   -4.120302
    112          6           0       -3.030078   -4.113093   -5.548078
    113          6           0        0.620634   -3.258433   -6.164989
    114          6           0        1.710568   -3.288224   -5.284013
    115          6           0        0.867278   -3.182696   -7.543818
    116          6           0        3.017870   -3.265823   -5.772728
    117          1           0        1.528578   -3.358113   -4.208016
    118          6           0        2.172332   -3.152415   -8.030548
    119          1           0        0.025942   -3.143421   -8.239927
    120          6           0        3.252887   -3.199994   -7.145965
    121          1           0        3.854148   -3.306243   -5.071842
    122          1           0        2.347539   -3.087805   -9.106133
    123          1           0        4.275368   -3.183816   -7.528147
    124          9           0       -3.972145   -4.956878   -5.990894
    125          6           0       -2.775108   -6.495970  -10.472997
    126          1           0       -3.777494   -6.842258  -10.179701
    127          1           0       -2.905050   -5.539290  -10.999373
    128          1           0       -2.340286   -7.226333  -11.166446
    129          6           0        1.601055   -8.713913   -8.355703
    130          6           0        2.279927   -6.899979   -6.884793
    131          6           0        2.859863   -8.475552   -9.175759
    132          1           0        0.786954   -9.101318   -8.977121
    133          1           0        1.823751   -9.473612   -7.586014
    134          6           0        3.521548   -6.754532   -7.758943
    135          1           0        1.987845   -5.909621   -6.513990
    136          1           0        2.505793   -7.546044   -6.018261
    137          1           0        2.640143   -7.764286   -9.995897
    138          1           0        3.214990   -9.417858   -9.614227
    139          1           0        3.322335   -5.993897   -8.538956
    140          1           0        4.369579   -6.414341   -7.148782
    141          7           0        1.200914   -7.491043   -7.674035
    142          8           0        3.888268   -7.974429   -8.356369
    143          1           0       -3.162601   -4.723570   -8.420818
    144          1           0        0.096245   -5.959971   -5.739967
    145          1           0        1.135611    1.538148   -0.905454
    146          1           0       -5.661219    0.177154    1.019211
 ---------------------------------------------------------------------
 Rotational constants (GHZ):           0.0276004           0.0151658           0.0124619
 Leave Link  202 at Wed Jun 12 15:29:59 2024, MaxMem=  8589934592 cpu:               0.1 elap:               0.0
 (Enter /opt/packages/gaussian/g16RevC.01/g16/l301.exe)
 Standard basis: def2TZVPP (5D, 7F)
 Ernie: Thresh=  0.10000D-02 Tol=  0.10000D-05 Strict=F.
  3564 basis functions,  5534 primitive gaussians,  4064 cartesian basis functions
   324 alpha electrons      324 beta electrons
       nuclear repulsion energy     18131.7511024229 Hartrees.
 IExCor=  402 DFT=T Ex+Corr=B3LYP ExCW=0 ScaHFX=  0.200000
 ScaDFX=  0.800000  0.720000  1.000000  0.810000 ScalE2=  1.000000  1.000000
 IRadAn=      5 IRanWt=     -1 IRanGd=            0 ICorTp=0 IEmpDi=141
 NAtoms=  146 NActive=  146 NUniq=  146 SFac= 1.00D+00 NAtFMM=   60 NAOKFM=T Big=T
 Integral buffers will be    131072 words long.
 Raffenetti 2 integral format.
 Two-electron integral symmetry is turned off.
 R6Disp:  Grimme-D3(BJ) Dispersion energy=       -0.4524536986 Hartrees.
 Nuclear repulsion after empirical dispersion term =    18131.2986487243 Hartrees.
 ------------------------------------------------------------------------------
 Polarizable Continuum Model (PCM)
 =================================
 Model                : PCM.
 Atomic radii         : SMD-Coulomb.
 Polarization charges : Total charges.
 Charge compensation  : None.
 Solution method      : On-the-fly selection.
 Cavity type          : VdW (van der Waals Surface) (Alpha=1.000).
 Cavity algorithm     : GePol (No added spheres)
                        Default sphere list used, NSphG=  146.
                        Lebedev-Laikov grids with approx.  5.0 points / Ang**2.
                        Smoothing algorithm: York/Karplus (Gamma=1.0000).
                        Polarization charges: spherical gaussians, with
                                              point-specific exponents (IZeta= 3).
                        Self-potential: point-specific (ISelfS= 7).
                        Self-field    : sphere-specific E.n sum rule (ISelfD= 2).
 Solvent              : PropylEthanoate, Eps=   5.520500 Eps(inf)=   1.916010
 ------------------------------------------------------------------------------
 GePol: Number of generator spheres                  =     146
 GePol: Total number of spheres                      =     146
 GePol: Number of exposed spheres                    =     145 ( 99.32%)
 GePol: Number of points                             =   10330
 GePol: Average weight of points                     =       0.11
 GePol: Minimum weight of points                     =   0.11D-10
 GePol: Maximum weight of points                     =    0.21501
 GePol: Number of points with low weight             =     621
 GePol: Fraction of low-weight points (<1% of avg)   =       6.01%
 GePol: Cavity surface area                          =   1130.073 Ang**2
 GePol: Cavity volume                                =   1270.164 Ang**3
 ------------------------------------------------------------------------------
 Atomic radii for non-electrostatic terms: SMD-CDS.
 ------------------------------------------------------------------------------
 PCM non-electrostatic energy =        -0.0326471180 Hartrees.
 Nuclear repulsion after PCM non-electrostatic terms =    18131.2660016063 Hartrees.
 Leave Link  301 at Wed Jun 12 15:30:00 2024, MaxMem=  8589934592 cpu:               4.2 elap:               0.1
 (Enter /opt/packages/gaussian/g16RevC.01/g16/l302.exe)
 NPDir=0 NMtPBC=     1 NCelOv=     1 NCel=       1 NClECP=     1 NCelD=      1
         NCelK=      1 NCelE2=     1 NClLst=     1 CellRange=     0.0.
 One-electron integrals computed using PRISM.
   1 Symmetry operations used in ECPInt.
 ECPInt:  NShTT=  874503 NPrTT= 2505333 LenC2=  498685 LenP2D=  913879.
 LDataN:  DoStor=T MaxTD1= 7 Len=  274
 Number of processors reduced to  14 by ecpmxn.
 NBasis=  3564 RedAO= T EigKep=  2.60D-06  NBF=  3564
 NBsUse=  3564 1.00D-06 EigRej= -1.00D+00 NBFU=  3564
 Precomputing XC quadrature grid using
 IXCGrd= 4 IRadAn=           5 IRanWt=          -1 IRanGd=           0 AccXCQ= 0.00D+00.
 Defaulting to unpruned grid for atomic number  53.
 Generated NRdTot=       0 NPtTot=           0 NUsed=           0 NTot=          32
 NSgBfM=  3204  3139  3169  3190  3204 MxSgAt=   146 MxSgA2=   146.
 Leave Link  302 at Wed Jun 12 15:30:36 2024, MaxMem=  8589934592 cpu:            1108.6 elap:              36.7
 (Enter /opt/packages/gaussian/g16RevC.01/g16/l303.exe)
 DipDrv:  MaxL=1.
 Leave Link  303 at Wed Jun 12 15:30:38 2024, MaxMem=  8589934592 cpu:              44.7 elap:               1.8
 (Enter /opt/packages/gaussian/g16RevC.01/g16/l401.exe)
 ExpMin= 7.49D-02 ExpMax= 6.07D+04 ExpMxC= 2.07D+03 IAcc=3 IRadAn=         5 AccDes= 0.00D+00
 Harris functional with IExCor=  402 and IRadAn=       5 diagonalized for initial guess.
 HarFok:  IExCor=  402 AccDes= 0.00D+00 IRadAn=         5 IDoV= 1 UseB2=F ITyADJ=14
 ICtDFT=  3500011 ScaDFX=  1.000000  1.000000  1.000000  1.000000
 Defaulting to unpruned grid for atomic number  53.
 FoFCou: FMM=F IPFlag=           0 FMFlag=      100000 FMFlg1=        2001
         NFxFlg=           0 DoJE=T BraDBF=F KetDBF=T FulRan=T
         wScrn=  0.000000 ICntrl=       500 IOpCl=  0 I1Cent=   200000004 NGrid=           0
         NMat0=    1 NMatS0=      1 NMatT0=    0 NMatD0=    1 NMtDS0=    0 NMtDT0=    0
 Symmetry not used in FoFCou.
 Harris En= -4852.92722968003    
 JPrj=0 DoOrth=F DoCkMO=F.
 Leave Link  401 at Wed Jun 12 15:31:13 2024, MaxMem=  8589934592 cpu:            1099.5 elap:              34.6
 (Enter /opt/packages/gaussian/g16RevC.01/g16/l502.exe)
 Two-electron integral symmetry not used.
 Closed shell SCF:
 Using DIIS extrapolation, IDIIS=  1040.
 NGot=  8589934592 LenX=  8556743982 LenY=  8540223822
 Requested convergence on RMS density matrix=1.00D-08 within 128 cycles.
 Requested convergence on MAX density matrix=1.00D-06.
 Requested convergence on             energy=1.00D-06.
 No special actions if energy rises.
 Fock matrices will be formed incrementally for  20 cycles.

 Cycle   1  Pass 1  IDiag  1:
 FoFJK:  IHMeth= 1 ICntrl=       0 DoSepK=F KAlg= 0 I1Cent=           0 FoldK=F
 IRaf= 520000000 NMat=       1 IRICut=       1 DoRegI=T DoRafI=F ISym2E= 0 IDoP0=0 IntGTp=1.
 FoFCou: FMM=T IPFlag=           0 FMFlag=      100000 FMFlg1=        2001
         NFxFlg=           0 DoJE=F BraDBF=F KetDBF=F FulRan=T
         wScrn=  0.000000 ICntrl=         0 IOpCl=  0 I1Cent=           0 NGrid=           0
         NMat0=    1 NMatS0=      1 NMatT0=    0 NMatD0=    1 NMtDS0=    0 NMtDT0=    0
 Symmetry not used in FoFCou.
 FMM levels:  10  Number of levels for PrismC:   9
 Defaulting to unpruned grid for atomic number  53.
 Defaulting to unpruned grid for atomic number  53.
 Defaulting to unpruned grid for atomic number  53.
 Defaulting to unpruned grid for atomic number  53.
 Defaulting to unpruned grid for atomic number  53.
 Defaulting to unpruned grid for atomic number  53.
 Defaulting to unpruned grid for atomic number  53.
 Defaulting to unpruned grid for atomic number  53.
 Defaulting to unpruned grid for atomic number  53.
 Defaulting to unpruned grid for atomic number  53.
 Defaulting to unpruned grid for atomic number  53.
 Defaulting to unpruned grid for atomic number  53.
 Defaulting to unpruned grid for atomic number  53.
 Defaulting to unpruned grid for atomic number  53.
 Defaulting to unpruned grid for atomic number  53.
 Defaulting to unpruned grid for atomic number  53.
 Defaulting to unpruned grid for atomic number  53.
 Defaulting to unpruned grid for atomic number  53.
 Defaulting to unpruned grid for atomic number  53.
 Defaulting to unpruned grid for atomic number  53.
 Defaulting to unpruned grid for atomic number  53.
 Defaulting to unpruned grid for atomic number  53.
 Defaulting to unpruned grid for atomic number  53.
 Defaulting to unpruned grid for atomic number  53.
 Defaulting to unpruned grid for atomic number  53.
 Defaulting to unpruned grid for atomic number  53.
 Defaulting to unpruned grid for atomic number  53.
 Defaulting to unpruned grid for atomic number  53.
 Defaulting to unpruned grid for atomic number  53.
 Defaulting to unpruned grid for atomic number  53.
 Defaulting to unpruned grid for atomic number  53.
 Defaulting to unpruned grid for atomic number  53.
 Inv3:  Mode=1 IEnd=   320126700.
 Iteration    1 A*A^-1 deviation from unit magnitude is 4.11D-15 for   8172.
 Iteration    1 A*A^-1 deviation from orthogonality  is 3.08D-15 for   7982   7843.
 Iteration    1 A^-1*A deviation from unit magnitude is 4.00D-15 for   5720.
 Iteration    1 A^-1*A deviation from orthogonality  is 5.14D-13 for   7817   7796.
 E= -4850.66562322573    
 DIIS: error= 1.19D-02 at cycle   1 NSaved=   1.
 NSaved= 1 IEnMin= 1 EnMin= -4850.66562322573     IErMin= 1 ErrMin= 1.19D-02
 ErrMax= 1.19D-02  0.00D+00 EMaxC= 1.00D-01 BMatC= 2.74D+00 BMatP= 2.74D+00
 IDIUse=3 WtCom= 8.81D-01 WtEn= 1.19D-01
 Coeff-Com:  0.100D+01
 Coeff-En:   0.100D+01
 Coeff:      0.100D+01
 Gap=     0.332 Goal=   None    Shift=    0.000
 GapD=    0.332 DampG=1.000 DampE=0.500 DampFc=0.5000 IDamp=-1.
 Damping current iteration by 5.00D-01
 RMSDP=2.91D-03 MaxDP=1.90D+00              OVMax= 2.40D-01

 Cycle   2  Pass 1  IDiag  1:
 RMSU=  1.44D-03    CP:  1.07D+00
 E= -4851.39515155372     Delta-E=       -0.729528327989 Rises=F Damp=T
 DIIS: error= 5.48D-03 at cycle   2 NSaved=   2.
 NSaved= 2 IEnMin= 2 EnMin= -4851.39515155372     IErMin= 2 ErrMin= 5.48D-03
 ErrMax= 5.48D-03  0.00D+00 EMaxC= 1.00D-01 BMatC= 3.48D-01 BMatP= 2.74D+00
 IDIUse=3 WtCom= 9.45D-01 WtEn= 5.48D-02
 Coeff-Com:  0.163D+00 0.837D+00
 Coeff-En:   0.282D+00 0.718D+00
 Coeff:      0.169D+00 0.831D+00
 Gap=     0.189 Goal=   None    Shift=    0.000
 RMSDP=8.79D-04 MaxDP=5.22D-01 DE=-7.30D-01 OVMax= 2.27D-01

 Cycle   3  Pass 1  IDiag  1:
 RMSU=  6.46D-04    CP:  1.03D+00  5.93D-01
 E= -4852.56073964204     Delta-E=       -1.165588088319 Rises=F Damp=F
 DIIS: error= 6.21D-03 at cycle   3 NSaved=   3.
 NSaved= 3 IEnMin= 3 EnMin= -4852.56073964204     IErMin= 2 ErrMin= 5.48D-03
 ErrMax= 6.21D-03  0.00D+00 EMaxC= 1.00D-01 BMatC= 3.95D-01 BMatP= 3.48D-01
 IDIUse=3 WtCom= 1.13D-01 WtEn= 8.87D-01
 Coeff-Com:  0.125D-01 0.516D+00 0.472D+00
 Coeff-En:   0.000D+00 0.000D+00 0.100D+01
 Coeff:      0.141D-02 0.581D-01 0.941D+00
 Gap=     0.200 Goal=   None    Shift=    0.000
 RMSDP=1.10D-03 MaxDP=6.87D-01 DE=-1.17D+00 OVMax= 2.07D-01

 Cycle   4  Pass 1  IDiag  1:
 RMSU=  6.85D-04    CP:  1.03D+00  7.52D-01 -2.82D-01
 E= -4851.38172512657     Delta-E=        1.179014515466 Rises=F Damp=F
 DIIS: error= 1.28D-02 at cycle   4 NSaved=   4.
 NSaved= 4 IEnMin= 3 EnMin= -4852.56073964204     IErMin= 2 ErrMin= 5.48D-03
 ErrMax= 1.28D-02  0.00D+00 EMaxC= 1.00D-01 BMatC= 1.90D+00 BMatP= 3.48D-01
 IDIUse=2 WtCom= 0.00D+00 WtEn= 1.00D+00
 Coeff-En:   0.000D+00 0.000D+00 0.762D+00 0.238D+00
 Coeff:      0.000D+00 0.000D+00 0.762D+00 0.238D+00
 Gap=     0.180 Goal=   None    Shift=    0.000
 RMSDP=6.44D-04 MaxDP=6.38D-01 DE= 1.18D+00 OVMax= 1.33D-01

 Cycle   5  Pass 1  IDiag  1:
 RMSU=  1.95D-04    CP:  1.02D+00  5.60D-01  2.90D-01  4.13D-01
 E= -4852.80804046490     Delta-E=       -1.426315338325 Rises=F Damp=F
 DIIS: error= 3.20D-03 at cycle   5 NSaved=   5.
 NSaved= 5 IEnMin= 5 EnMin= -4852.80804046490     IErMin= 5 ErrMin= 3.20D-03
 ErrMax= 3.20D-03  0.00D+00 EMaxC= 1.00D-01 BMatC= 1.07D-01 BMatP= 3.48D-01
 IDIUse=3 WtCom= 9.68D-01 WtEn= 3.20D-02
 Coeff-Com:  0.151D-02 0.844D-02 0.303D+00-0.371D-01 0.724D+00
 Coeff-En:   0.000D+00 0.000D+00 0.257D+00 0.000D+00 0.743D+00
 Coeff:      0.146D-02 0.817D-02 0.301D+00-0.359D-01 0.725D+00
 Gap=     0.123 Goal=   None    Shift=    0.000
 RMSDP=1.68D-04 MaxDP=7.11D-02 DE=-1.43D+00 OVMax= 3.61D-02

 Cycle   6  Pass 1  IDiag  1:
 RMSU=  4.81D-05    CP:  1.02D+00  5.46D-01  4.87D-01  2.76D-01  8.82D-01
 E= -4852.89365787517     Delta-E=       -0.085617410270 Rises=F Damp=F
 DIIS: error= 4.70D-04 at cycle   6 NSaved=   6.
 NSaved= 6 IEnMin= 6 EnMin= -4852.89365787517     IErMin= 6 ErrMin= 4.70D-04
 ErrMax= 4.70D-04  0.00D+00 EMaxC= 1.00D-01 BMatC= 2.85D-03 BMatP= 1.07D-01
 IDIUse=3 WtCom= 9.95D-01 WtEn= 4.70D-03
 Coeff-Com: -0.219D-02 0.470D-02 0.148D+00-0.531D-01 0.491D+00 0.412D+00
 Coeff-En:   0.000D+00 0.000D+00 0.000D+00 0.000D+00 0.000D+00 0.100D+01
 Coeff:     -0.218D-02 0.467D-02 0.147D+00-0.528D-01 0.488D+00 0.415D+00
 Gap=     0.124 Goal=   None    Shift=    0.000
 RMSDP=3.12D-05 MaxDP=1.31D-02 DE=-8.56D-02 OVMax= 1.16D-02

 Cycle   7  Pass 1  IDiag  1:
 RMSU=  1.69D-05    CP:  1.02D+00  5.54D-01  5.02D-01  2.62D-01  9.02D-01
                    CP:  6.20D-01
 E= -4852.89631602872     Delta-E=       -0.002658153553 Rises=F Damp=F
 DIIS: error= 1.65D-04 at cycle   7 NSaved=   7.
 NSaved= 7 IEnMin= 7 EnMin= -4852.89631602872     IErMin= 7 ErrMin= 1.65D-04
 ErrMax= 1.65D-04  0.00D+00 EMaxC= 1.00D-01 BMatC= 1.42D-04 BMatP= 2.85D-03
 IDIUse=3 WtCom= 9.98D-01 WtEn= 1.65D-03
 Coeff-Com: -0.141D-02 0.349D-02 0.672D-01-0.307D-01 0.242D+00 0.244D+00
 Coeff-Com:  0.476D+00
 Coeff-En:   0.000D+00 0.000D+00 0.000D+00 0.000D+00 0.000D+00 0.000D+00
 Coeff-En:   0.100D+01
 Coeff:     -0.141D-02 0.348D-02 0.671D-01-0.307D-01 0.242D+00 0.243D+00
 Coeff:      0.476D+00
 Gap=     0.122 Goal=   None    Shift=    0.000
 RMSDP=6.12D-06 MaxDP=2.23D-03 DE=-2.66D-03 OVMax= 2.12D-03

 Cycle   8  Pass 1  IDiag  1:
 RMSU=  4.97D-06    CP:  1.02D+00  5.54D-01  5.01D-01  2.64D-01  9.01D-01
                    CP:  6.00D-01  8.15D-01
 E= -4852.89642485198     Delta-E=       -0.000108823260 Rises=F Damp=F
 DIIS: error= 3.60D-05 at cycle   8 NSaved=   8.
 NSaved= 8 IEnMin= 8 EnMin= -4852.89642485198     IErMin= 8 ErrMin= 3.60D-05
 ErrMax= 3.60D-05  0.00D+00 EMaxC= 1.00D-01 BMatC= 1.49D-05 BMatP= 1.42D-04
 IDIUse=1 WtCom= 1.00D+00 WtEn= 0.00D+00
 Coeff-Com: -0.272D-03 0.578D-03 0.164D-01-0.869D-02 0.600D-01 0.717D-01
 Coeff-Com:  0.268D+00 0.592D+00
 Coeff:     -0.272D-03 0.578D-03 0.164D-01-0.869D-02 0.600D-01 0.717D-01
 Coeff:      0.268D+00 0.592D+00
 Gap=     0.122 Goal=   None    Shift=    0.000
 RMSDP=2.07D-06 MaxDP=9.02D-04 DE=-1.09D-04 OVMax= 7.16D-04

 Cycle   9  Pass 1  IDiag  1:
 RMSU=  1.46D-06    CP:  1.02D+00  5.54D-01  5.02D-01  2.63D-01  9.01D-01
                    CP:  6.02D-01  8.31D-01  8.29D-01
 E= -4852.89643612597     Delta-E=       -0.000011273987 Rises=F Damp=F
 DIIS: error= 1.38D-05 at cycle   9 NSaved=   9.
 NSaved= 9 IEnMin= 9 EnMin= -4852.89643612597     IErMin= 9 ErrMin= 1.38D-05
 ErrMax= 1.38D-05  0.00D+00 EMaxC= 1.00D-01 BMatC= 2.59D-06 BMatP= 1.49D-05
 IDIUse=1 WtCom= 1.00D+00 WtEn= 0.00D+00
 Coeff-Com:  0.329D-04-0.218D-03 0.208D-02-0.140D-02 0.689D-02 0.140D-01
 Coeff-Com:  0.103D+00 0.369D+00 0.506D+00
 Coeff:      0.329D-04-0.218D-03 0.208D-02-0.140D-02 0.689D-02 0.140D-01
 Coeff:      0.103D+00 0.369D+00 0.506D+00
 Gap=     0.122 Goal=   None    Shift=    0.000
 RMSDP=9.48D-07 MaxDP=2.89D-04 DE=-1.13D-05 OVMax= 3.03D-04

 Cycle  10  Pass 1  IDiag  1:
 RMSU=  7.10D-07    CP:  1.02D+00  5.53D-01  5.02D-01  2.63D-01  9.02D-01
                    CP:  6.07D-01  8.38D-01  8.07D-01  6.70D-01
 E= -4852.89643830978     Delta-E=       -0.000002183817 Rises=F Damp=F
 DIIS: error= 4.34D-06 at cycle  10 NSaved=  10.
 NSaved=10 IEnMin=10 EnMin= -4852.89643830978     IErMin=10 ErrMin= 4.34D-06
 ErrMax= 4.34D-06  0.00D+00 EMaxC= 1.00D-01 BMatC= 2.47D-07 BMatP= 2.59D-06
 IDIUse=1 WtCom= 1.00D+00 WtEn= 0.00D+00
 Coeff-Com:  0.356D-04-0.192D-03-0.114D-03-0.950D-04-0.789D-03 0.225D-02
 Coeff-Com:  0.351D-01 0.160D+00 0.302D+00 0.502D+00
 Coeff:      0.356D-04-0.192D-03-0.114D-03-0.950D-04-0.789D-03 0.225D-02
 Coeff:      0.351D-01 0.160D+00 0.302D+00 0.502D+00
 Gap=     0.122 Goal=   None    Shift=    0.000
 RMSDP=3.71D-07 MaxDP=1.84D-04 DE=-2.18D-06 OVMax= 8.81D-05

 Cycle  11  Pass 1  IDiag  1:
 RMSU=  1.99D-07    CP:  1.02D+00  5.53D-01  5.02D-01  2.63D-01  9.01D-01
                    CP:  6.08D-01  8.40D-01  8.26D-01  7.07D-01  7.16D-01
 E= -4852.89643851049     Delta-E=       -0.000000200704 Rises=F Damp=F
 DIIS: error= 1.42D-06 at cycle  11 NSaved=  11.
 NSaved=11 IEnMin=11 EnMin= -4852.89643851049     IErMin=11 ErrMin= 1.42D-06
 ErrMax= 1.42D-06  0.00D+00 EMaxC= 1.00D-01 BMatC= 3.40D-08 BMatP= 2.47D-07
 IDIUse=1 WtCom= 1.00D+00 WtEn= 0.00D+00
 Coeff-Com:  0.127D-04-0.696D-04-0.378D-03 0.101D-03-0.138D-02-0.235D-03
 Coeff-Com:  0.882D-02 0.538D-01 0.124D+00 0.310D+00 0.505D+00
 Coeff:      0.127D-04-0.696D-04-0.378D-03 0.101D-03-0.138D-02-0.235D-03
 Coeff:      0.882D-02 0.538D-01 0.124D+00 0.310D+00 0.505D+00
 Gap=     0.122 Goal=   None    Shift=    0.000
 RMSDP=1.29D-07 MaxDP=3.94D-05 DE=-2.01D-07 OVMax= 3.33D-05

 Cycle  12  Pass 1  IDiag  1:
 RMSU=  8.61D-08    CP:  1.02D+00  5.54D-01  5.02D-01  2.63D-01  9.01D-01
                    CP:  6.07D-01  8.44D-01  8.30D-01  6.96D-01  7.65D-01
                    CP:  7.85D-01
 E= -4852.89643853832     Delta-E=       -0.000000027831 Rises=F Damp=F
 DIIS: error= 5.64D-07 at cycle  12 NSaved=  12.
 NSaved=12 IEnMin=12 EnMin= -4852.89643853832     IErMin=12 ErrMin= 5.64D-07
 ErrMax= 5.64D-07  0.00D+00 EMaxC= 1.00D-01 BMatC= 4.65D-09 BMatP= 3.40D-08
 IDIUse=1 WtCom= 1.00D+00 WtEn= 0.00D+00
 Coeff-Com:  0.159D-05-0.111D-04-0.275D-03 0.978D-04-0.907D-03-0.559D-03
 Coeff-Com: -0.198D-04 0.990D-02 0.311D-01 0.113D+00 0.300D+00 0.547D+00
 Coeff:      0.159D-05-0.111D-04-0.275D-03 0.978D-04-0.907D-03-0.559D-03
 Coeff:     -0.198D-04 0.990D-02 0.311D-01 0.113D+00 0.300D+00 0.547D+00
 Gap=     0.122 Goal=   None    Shift=    0.000
 RMSDP=6.38D-08 MaxDP=2.88D-05 DE=-2.78D-08 OVMax= 1.76D-05

 Cycle  13  Pass 1  IDiag  1:
 RMSU=  2.98D-08    CP:  1.02D+00  5.54D-01  5.02D-01  2.63D-01  9.01D-01
                    CP:  6.07D-01  8.42D-01  8.29D-01  7.01D-01  7.72D-01
                    CP:  8.34D-01  7.29D-01
 E= -4852.89643854289     Delta-E=       -0.000000004569 Rises=F Damp=F
 DIIS: error= 2.11D-07 at cycle  13 NSaved=  13.
 NSaved=13 IEnMin=13 EnMin= -4852.89643854289     IErMin=13 ErrMin= 2.11D-07
 ErrMax= 2.11D-07  0.00D+00 EMaxC= 1.00D-01 BMatC= 6.37D-10 BMatP= 4.65D-09
 IDIUse=1 WtCom= 1.00D+00 WtEn= 0.00D+00
 Coeff-Com: -0.258D-05 0.727D-05-0.860D-04 0.318D-04-0.237D-03-0.196D-03
 Coeff-Com: -0.137D-02-0.300D-02-0.347D-02 0.120D-01 0.861D-01 0.315D+00
 Coeff-Com:  0.596D+00
 Coeff:     -0.258D-05 0.727D-05-0.860D-04 0.318D-04-0.237D-03-0.196D-03
 Coeff:     -0.137D-02-0.300D-02-0.347D-02 0.120D-01 0.861D-01 0.315D+00
 Coeff:      0.596D+00
 Gap=     0.122 Goal=   None    Shift=    0.000
 RMSDP=1.72D-08 MaxDP=6.85D-06 DE=-4.57D-09 OVMax= 7.64D-06

 Cycle  14  Pass 1  IDiag  1:
 RMSU=  9.55D-09    CP:  1.02D+00  5.54D-01  5.02D-01  2.63D-01  9.01D-01
                    CP:  6.08D-01  8.43D-01  8.29D-01  7.02D-01  7.74D-01
                    CP:  8.43D-01  8.04D-01  8.63D-01
 E= -4852.89643854299     Delta-E=       -0.000000000098 Rises=F Damp=F
 DIIS: error= 7.93D-08 at cycle  14 NSaved=  14.
 NSaved=14 IEnMin=14 EnMin= -4852.89643854299     IErMin=14 ErrMin= 7.93D-08
 ErrMax= 7.93D-08  0.00D+00 EMaxC= 1.00D-01 BMatC= 7.91D-11 BMatP= 6.37D-10
 IDIUse=1 WtCom= 1.00D+00 WtEn= 0.00D+00
 Coeff-Com: -0.175D-05 0.572D-05-0.203D-04 0.707D-05-0.370D-04-0.417D-04
 Coeff-Com: -0.738D-03-0.270D-02-0.564D-02-0.611D-02 0.140D-01 0.114D+00
 Coeff-Com:  0.348D+00 0.539D+00
 Coeff:     -0.175D-05 0.572D-05-0.203D-04 0.707D-05-0.370D-04-0.417D-04
 Coeff:     -0.738D-03-0.270D-02-0.564D-02-0.611D-02 0.140D-01 0.114D+00
 Coeff:      0.348D+00 0.539D+00
 Gap=     0.122 Goal=   None    Shift=    0.000
 RMSDP=9.22D-09 MaxDP=5.13D-06 DE=-9.82D-11 OVMax= 2.07D-06

 Cycle  15  Pass 1  IDiag  1:
 RMSU=  4.52D-09    CP:  1.02D+00  5.54D-01  5.02D-01  2.63D-01  9.01D-01
                    CP:  6.08D-01  8.43D-01  8.30D-01  7.02D-01  7.74D-01
                    CP:  8.55D-01  8.20D-01  8.42D-01  8.39D-01
 E= -4852.89643854339     Delta-E=       -0.000000000400 Rises=F Damp=F
 DIIS: error= 1.73D-08 at cycle  15 NSaved=  15.
 NSaved=15 IEnMin=15 EnMin= -4852.89643854339     IErMin=15 ErrMin= 1.73D-08
 ErrMax= 1.73D-08  0.00D+00 EMaxC= 1.00D-01 BMatC= 8.04D-12 BMatP= 7.91D-11
 IDIUse=1 WtCom= 1.00D+00 WtEn= 0.00D+00
 Coeff-Com: -0.455D-06 0.159D-05 0.286D-05-0.107D-05 0.168D-04 0.965D-05
 Coeff-Com: -0.162D-03-0.898D-03-0.246D-02-0.492D-02-0.634D-02 0.841D-02
 Coeff-Com:  0.940D-01 0.284D+00 0.629D+00
 Coeff:     -0.455D-06 0.159D-05 0.286D-05-0.107D-05 0.168D-04 0.965D-05
 Coeff:     -0.162D-03-0.898D-03-0.246D-02-0.492D-02-0.634D-02 0.841D-02
 Coeff:      0.940D-01 0.284D+00 0.629D+00
 Gap=     0.122 Goal=   None    Shift=    0.000
 RMSDP=2.81D-09 MaxDP=1.03D-06 DE=-4.00D-10 OVMax= 1.13D-06

 Cycle  16  Pass 1  IDiag  1:
 RMSU=  1.41D-09    CP:  1.02D+00  5.54D-01  5.02D-01  2.63D-01  9.01D-01
                    CP:  6.08D-01  8.43D-01  8.30D-01  7.02D-01  7.74D-01
                    CP:  8.56D-01  8.24D-01  8.74D-01  8.95D-01  8.12D-01
 E= -4852.89643854319     Delta-E=        0.000000000193 Rises=F Damp=F
 DIIS: error= 1.01D-08 at cycle  16 NSaved=  16.
 NSaved=16 IEnMin=15 EnMin= -4852.89643854339     IErMin=16 ErrMin= 1.01D-08
 ErrMax= 1.01D-08  0.00D+00 EMaxC= 1.00D-01 BMatC= 1.92D-12 BMatP= 8.04D-12
 IDIUse=1 WtCom= 1.00D+00 WtEn= 0.00D+00
 Coeff-Com: -0.534D-07 0.284D-06 0.380D-05-0.129D-05 0.132D-04 0.947D-05
 Coeff-Com: -0.188D-04-0.249D-03-0.882D-03-0.226D-02-0.534D-02-0.806D-02
 Coeff-Com:  0.206D-01 0.115D+00 0.392D+00 0.489D+00
 Coeff:     -0.534D-07 0.284D-06 0.380D-05-0.129D-05 0.132D-04 0.947D-05
 Coeff:     -0.188D-04-0.249D-03-0.882D-03-0.226D-02-0.534D-02-0.806D-02
 Coeff:      0.206D-01 0.115D+00 0.392D+00 0.489D+00
 Gap=     0.122 Goal=   None    Shift=    0.000
 RMSDP=7.95D-10 MaxDP=2.42D-07 DE= 1.93D-10 OVMax= 2.43D-07

 Error on total polarization charges =  0.08849
 SCF Done:  E(RB3LYP) =  -4852.89643854     A.U. after   16 cycles
            NFock= 16  Conv=0.79D-09     -V/T= 2.0441
 KE= 4.647767083932D+03 PE=-4.755388123083D+04 EE= 1.992195170675D+04
 SMD-CDS (non-electrostatic) energy       (kcal/mol) =     -20.49
 (included in total energy above)
 Leave Link  502 at Wed Jun 12 17:38:59 2024, MaxMem=  8589934592 cpu:          243146.0 elap:            7666.6
 (Enter /opt/packages/gaussian/g16RevC.01/g16/l601.exe)
 Copying SCF densities to generalized density rwf, IOpCl= 0 IROHF=0.
 Hyperfine terms turned off by default for NAtoms > 100.

 **********************************************************************

            Population analysis using the SCF Density.

 **********************************************************************

 Alpha  occ. eigenvalues --  -89.02067 -89.01981 -24.69980 -24.69404 -19.14573
 Alpha  occ. eigenvalues --  -19.13652 -19.13519 -19.10604 -19.08595 -19.08437
 Alpha  occ. eigenvalues --  -19.08374 -19.08195 -14.37540 -14.35397 -14.34125
 Alpha  occ. eigenvalues --  -14.32264 -14.31316 -14.27284 -10.29172 -10.27548
 Alpha  occ. eigenvalues --  -10.27475 -10.27086 -10.26598 -10.26331 -10.25135
 Alpha  occ. eigenvalues --  -10.23847 -10.22240 -10.22211 -10.21962 -10.21845
 Alpha  occ. eigenvalues --  -10.21372 -10.21309 -10.21140 -10.20912 -10.20873
 Alpha  occ. eigenvalues --  -10.20388 -10.20240 -10.20161 -10.19795 -10.19710
 Alpha  occ. eigenvalues --  -10.19648 -10.19614 -10.19561 -10.19185 -10.19028
 Alpha  occ. eigenvalues --  -10.19011 -10.18904 -10.18791 -10.18787 -10.18787
 Alpha  occ. eigenvalues --  -10.18678 -10.18658 -10.18574 -10.18516 -10.18374
 Alpha  occ. eigenvalues --  -10.18068 -10.17982 -10.17848 -10.17814 -10.17800
 Alpha  occ. eigenvalues --  -10.17742 -10.17682 -10.17648 -10.17642 -10.17627
 Alpha  occ. eigenvalues --  -10.17573 -10.17555 -10.17534 -10.17524 -10.17509
 Alpha  occ. eigenvalues --  -10.17503 -10.17497 -10.17487 -10.17456 -10.17455
 Alpha  occ. eigenvalues --  -10.17424 -10.17422 -10.17408 -10.17345 -10.17339
 Alpha  occ. eigenvalues --  -10.17305 -10.17294 -10.17271 -10.17223 -10.17148
 Alpha  occ. eigenvalues --  -10.15565  -8.06606  -8.06527  -6.83525  -6.02916
 Alpha  occ. eigenvalues --   -6.02846  -6.02844  -6.02815  -6.02766  -6.02727
 Alpha  occ. eigenvalues --   -4.86290  -4.84630  -4.84598  -1.90975  -1.90524
 Alpha  occ. eigenvalues --   -1.90495  -1.89104  -1.89104  -1.23886  -1.23749
 Alpha  occ. eigenvalues --   -1.10263  -1.08722  -1.08365  -1.05573  -1.05531
 Alpha  occ. eigenvalues --   -1.05015  -1.00219  -1.00087  -0.97899  -0.97814
 Alpha  occ. eigenvalues --   -0.94302  -0.94151  -0.93730  -0.89216  -0.87972
 Alpha  occ. eigenvalues --   -0.87782  -0.87648  -0.87070  -0.85348  -0.85257
 Alpha  occ. eigenvalues --   -0.83370  -0.83064  -0.82884  -0.82202  -0.80161
 Alpha  occ. eigenvalues --   -0.80076  -0.79367  -0.78690  -0.78540  -0.78479
 Alpha  occ. eigenvalues --   -0.78137  -0.77987  -0.76141  -0.75503  -0.75115
 Alpha  occ. eigenvalues --   -0.74803  -0.74630  -0.74579  -0.74545  -0.73109
 Alpha  occ. eigenvalues --   -0.72897  -0.72767  -0.72379  -0.72092  -0.71434
 Alpha  occ. eigenvalues --   -0.70766  -0.70385  -0.68823  -0.67833  -0.67398
 Alpha  occ. eigenvalues --   -0.66884  -0.66790  -0.65073  -0.64999  -0.64584
 Alpha  occ. eigenvalues --   -0.63913  -0.63735  -0.62961  -0.62477  -0.62461
 Alpha  occ. eigenvalues --   -0.62390  -0.62085  -0.60935  -0.60697  -0.60657
 Alpha  occ. eigenvalues --   -0.60645  -0.59796  -0.59747  -0.58636  -0.58595
 Alpha  occ. eigenvalues --   -0.57834  -0.57238  -0.56997  -0.55873  -0.55838
 Alpha  occ. eigenvalues --   -0.54734  -0.54256  -0.53794  -0.53596  -0.53559
 Alpha  occ. eigenvalues --   -0.52957  -0.52642  -0.52398  -0.52180  -0.51088
 Alpha  occ. eigenvalues --   -0.50986  -0.50927  -0.50247  -0.50145  -0.50018
 Alpha  occ. eigenvalues --   -0.49927  -0.49856  -0.49617  -0.49507  -0.49241
 Alpha  occ. eigenvalues --   -0.48937  -0.48757  -0.48660  -0.48495  -0.48234
 Alpha  occ. eigenvalues --   -0.47917  -0.47810  -0.47616  -0.47141  -0.46949
 Alpha  occ. eigenvalues --   -0.46651  -0.46242  -0.45985  -0.45930  -0.45799
 Alpha  occ. eigenvalues --   -0.45777  -0.45645  -0.45495  -0.45385  -0.45279
 Alpha  occ. eigenvalues --   -0.45194  -0.45100  -0.44580  -0.44439  -0.44310
 Alpha  occ. eigenvalues --   -0.44063  -0.43972  -0.43556  -0.43019  -0.42883
 Alpha  occ. eigenvalues --   -0.42806  -0.42760  -0.42522  -0.42458  -0.42400
 Alpha  occ. eigenvalues --   -0.42144  -0.42088  -0.41915  -0.41825  -0.41767
 Alpha  occ. eigenvalues --   -0.41539  -0.41180  -0.41097  -0.40940  -0.40641
 Alpha  occ. eigenvalues --   -0.40586  -0.40523  -0.40494  -0.40145  -0.39933
 Alpha  occ. eigenvalues --   -0.39651  -0.39481  -0.39336  -0.39282  -0.38721
 Alpha  occ. eigenvalues --   -0.38544  -0.38150  -0.38048  -0.37946  -0.37767
 Alpha  occ. eigenvalues --   -0.37576  -0.37493  -0.37408  -0.37223  -0.37120
 Alpha  occ. eigenvalues --   -0.36773  -0.36569  -0.36445  -0.36340  -0.36250
 Alpha  occ. eigenvalues --   -0.35999  -0.35771  -0.35731  -0.35469  -0.35016
 Alpha  occ. eigenvalues --   -0.34950  -0.34723  -0.34460  -0.34454  -0.34350
 Alpha  occ. eigenvalues --   -0.34091  -0.33968  -0.33901  -0.33470  -0.32993
 Alpha  occ. eigenvalues --   -0.32717  -0.32547  -0.32533  -0.31954  -0.31672
 Alpha  occ. eigenvalues --   -0.31302  -0.31198  -0.30562  -0.30300  -0.29914
 Alpha  occ. eigenvalues --   -0.29533  -0.29266  -0.29070  -0.28902  -0.28762
 Alpha  occ. eigenvalues --   -0.28424  -0.28101  -0.27816  -0.27637  -0.27531
 Alpha  occ. eigenvalues --   -0.27334  -0.26547  -0.26285  -0.26147  -0.25897
 Alpha  occ. eigenvalues --   -0.25678  -0.25426  -0.25118  -0.24929  -0.24821
 Alpha  occ. eigenvalues --   -0.24760  -0.24567  -0.23726  -0.23524  -0.23172
 Alpha  occ. eigenvalues --   -0.22882  -0.22112  -0.21714  -0.21484
 Alpha virt. eigenvalues --   -0.09275  -0.05772  -0.05715  -0.04708  -0.04590
 Alpha virt. eigenvalues --   -0.03910  -0.03003  -0.02871  -0.02628  -0.02389
 Alpha virt. eigenvalues --   -0.01819  -0.01729  -0.01214  -0.00337   0.00077
 Alpha virt. eigenvalues --    0.00530   0.00936   0.01075   0.01460   0.02208
 Alpha virt. eigenvalues --    0.02278   0.03033   0.03734   0.04055   0.04635
 Alpha virt. eigenvalues --    0.05177   0.05222   0.05400   0.05681   0.05974
 Alpha virt. eigenvalues --    0.06090   0.06261   0.06550   0.06740   0.06936
 Alpha virt. eigenvalues --    0.07171   0.07322   0.07361   0.07462   0.07620
 Alpha virt. eigenvalues --    0.07679   0.07816   0.07936   0.08144   0.08382
 Alpha virt. eigenvalues --    0.08553   0.08654   0.08813   0.08911   0.09059
 Alpha virt. eigenvalues --    0.09319   0.09380   0.09457   0.09618   0.09640
 Alpha virt. eigenvalues --    0.09878   0.10112   0.10317   0.10470   0.10536
 Alpha virt. eigenvalues --    0.10692   0.10860   0.10896   0.11157   0.11204
 Alpha virt. eigenvalues --    0.11400   0.11508   0.11740   0.11796   0.11914
 Alpha virt. eigenvalues --    0.12024   0.12227   0.12293   0.12330   0.12497
 Alpha virt. eigenvalues --    0.12574   0.12842   0.13006   0.13087   0.13182
 Alpha virt. eigenvalues --    0.13301   0.13375   0.13638   0.13828   0.13920
 Alpha virt. eigenvalues --    0.13995   0.14149   0.14210   0.14362   0.14472
 Alpha virt. eigenvalues --    0.14615   0.14713   0.14753   0.14884   0.14914
 Alpha virt. eigenvalues --    0.15270   0.15384   0.15524   0.15593   0.15838
 Alpha virt. eigenvalues --    0.15971   0.16090   0.16178   0.16354   0.16520
 Alpha virt. eigenvalues --    0.16698   0.16780   0.16904   0.17096   0.17138
 Alpha virt. eigenvalues --    0.17336   0.17447   0.17601   0.17782   0.17831
 Alpha virt. eigenvalues --    0.18289   0.18443   0.18549   0.18705   0.18873
 Alpha virt. eigenvalues --    0.19045   0.19210   0.19274   0.19456   0.19498
 Alpha virt. eigenvalues --    0.19695   0.19822   0.19867   0.19936   0.20210
 Alpha virt. eigenvalues --    0.20285   0.20344   0.20399   0.20872   0.20947
 Alpha virt. eigenvalues --    0.20994   0.21129   0.21243   0.21386   0.21435
 Alpha virt. eigenvalues --    0.21585   0.21803   0.21855   0.22238   0.22262
 Alpha virt. eigenvalues --    0.22405   0.22509   0.22582   0.22788   0.22948
 Alpha virt. eigenvalues --    0.23067   0.23143   0.23338   0.23488   0.23519
 Alpha virt. eigenvalues --    0.23684   0.23777   0.24091   0.24220   0.24329
 Alpha virt. eigenvalues --    0.24412   0.24419   0.24627   0.24795   0.25009
 Alpha virt. eigenvalues --    0.25023   0.25104   0.25166   0.25373   0.25485
 Alpha virt. eigenvalues --    0.25618   0.25684   0.25803   0.25952   0.26157
 Alpha virt. eigenvalues --    0.26254   0.26333   0.26481   0.26699   0.26867
 Alpha virt. eigenvalues --    0.26912   0.27197   0.27220   0.27372   0.27585
 Alpha virt. eigenvalues --    0.27667   0.27925   0.27946   0.28057   0.28213
 Alpha virt. eigenvalues --    0.28470   0.28556   0.28658   0.28742   0.28811
 Alpha virt. eigenvalues --    0.28961   0.29095   0.29138   0.29394   0.29446
 Alpha virt. eigenvalues --    0.29729   0.29810   0.29888   0.30050   0.30201
 Alpha virt. eigenvalues --    0.30264   0.30391   0.30566   0.30636   0.30750
 Alpha virt. eigenvalues --    0.30981   0.31108   0.31222   0.31274   0.31357
 Alpha virt. eigenvalues --    0.31437   0.31604   0.31762   0.31811   0.31992
 Alpha virt. eigenvalues --    0.32004   0.32188   0.32339   0.32456   0.32619
 Alpha virt. eigenvalues --    0.32675   0.32836   0.33183   0.33251   0.33296
 Alpha virt. eigenvalues --    0.33417   0.33605   0.33790   0.33907   0.34069
 Alpha virt. eigenvalues --    0.34095   0.34312   0.34437   0.34507   0.34747
 Alpha virt. eigenvalues --    0.34813   0.34862   0.34975   0.35092   0.35346
 Alpha virt. eigenvalues --    0.35446   0.35581   0.35612   0.35807   0.35854
 Alpha virt. eigenvalues --    0.36076   0.36193   0.36229   0.36413   0.36527
 Alpha virt. eigenvalues --    0.36709   0.36793   0.36866   0.36969   0.37174
 Alpha virt. eigenvalues --    0.37213   0.37261   0.37333   0.37503   0.37679
 Alpha virt. eigenvalues --    0.37734   0.37744   0.37893   0.38011   0.38253
 Alpha virt. eigenvalues --    0.38352   0.38403   0.38489   0.38509   0.38767
 Alpha virt. eigenvalues --    0.38875   0.38966   0.39111   0.39251   0.39313
 Alpha virt. eigenvalues --    0.39460   0.39523   0.39837   0.39887   0.40019
 Alpha virt. eigenvalues --    0.40162   0.40195   0.40340   0.40419   0.40462
 Alpha virt. eigenvalues --    0.40556   0.40746   0.40816   0.40971   0.41050
 Alpha virt. eigenvalues --    0.41307   0.41312   0.41415   0.41526   0.41637
 Alpha virt. eigenvalues --    0.41694   0.41737   0.41905   0.41949   0.42159
 Alpha virt. eigenvalues --    0.42287   0.42352   0.42493   0.42574   0.42720
 Alpha virt. eigenvalues --    0.42823   0.42893   0.42977   0.43017   0.43161
 Alpha virt. eigenvalues --    0.43229   0.43421   0.43534   0.43627   0.43740
 Alpha virt. eigenvalues --    0.43831   0.43867   0.43937   0.44085   0.44217
 Alpha virt. eigenvalues --    0.44309   0.44438   0.44612   0.44662   0.44735
 Alpha virt. eigenvalues --    0.44863   0.44967   0.44987   0.45117   0.45240
 Alpha virt. eigenvalues --    0.45327   0.45452   0.45562   0.45779   0.45846
 Alpha virt. eigenvalues --    0.45977   0.46132   0.46196   0.46344   0.46429
 Alpha virt. eigenvalues --    0.46486   0.46641   0.46679   0.46807   0.46979
 Alpha virt. eigenvalues --    0.47179   0.47310   0.47350   0.47568   0.47740
 Alpha virt. eigenvalues --    0.47755   0.47885   0.48017   0.48082   0.48199
 Alpha virt. eigenvalues --    0.48340   0.48547   0.48573   0.48621   0.48685
 Alpha virt. eigenvalues --    0.48783   0.49003   0.49135   0.49278   0.49364
 Alpha virt. eigenvalues --    0.49501   0.49616   0.49760   0.49791   0.50021
 Alpha virt. eigenvalues --    0.50156   0.50351   0.50504   0.50641   0.50689
 Alpha virt. eigenvalues --    0.50804   0.51095   0.51148   0.51263   0.51434
 Alpha virt. eigenvalues --    0.51554   0.51686   0.51853   0.52018   0.52078
 Alpha virt. eigenvalues --    0.52245   0.52377   0.52510   0.52583   0.52677
 Alpha virt. eigenvalues --    0.52835   0.52971   0.53063   0.53331   0.53556
 Alpha virt. eigenvalues --    0.53669   0.53784   0.53880   0.54087   0.54215
 Alpha virt. eigenvalues --    0.54282   0.54293   0.54461   0.54688   0.54796
 Alpha virt. eigenvalues --    0.55074   0.55220   0.55379   0.55572   0.55706
 Alpha virt. eigenvalues --    0.55782   0.55900   0.56149   0.56367   0.56632
 Alpha virt. eigenvalues --    0.56712   0.56876   0.57017   0.57342   0.57443
 Alpha virt. eigenvalues --    0.57541   0.57631   0.57896   0.58220   0.58346
 Alpha virt. eigenvalues --    0.58439   0.58596   0.58745   0.59008   0.59120
 Alpha virt. eigenvalues --    0.59262   0.59547   0.59696   0.59948   0.60099
 Alpha virt. eigenvalues --    0.60239   0.60299   0.60499   0.60582   0.60924
 Alpha virt. eigenvalues --    0.61211   0.61286   0.61348   0.61650   0.61691
 Alpha virt. eigenvalues --    0.61858   0.62019   0.62067   0.62291   0.62395
 Alpha virt. eigenvalues --    0.62419   0.62560   0.62679   0.62797   0.62886
 Alpha virt. eigenvalues --    0.63226   0.63481   0.63652   0.63736   0.63900
 Alpha virt. eigenvalues --    0.64008   0.64091   0.64443   0.64669   0.64747
 Alpha virt. eigenvalues --    0.64815   0.64957   0.65110   0.65222   0.65289
 Alpha virt. eigenvalues --    0.65458   0.65756   0.65789   0.65841   0.66124
 Alpha virt. eigenvalues --    0.66343   0.66526   0.66610   0.66771   0.67098
 Alpha virt. eigenvalues --    0.67134   0.67205   0.67330   0.67428   0.67677
 Alpha virt. eigenvalues --    0.67889   0.67907   0.68052   0.68207   0.68354
 Alpha virt. eigenvalues --    0.68509   0.68695   0.68858   0.68972   0.69001
 Alpha virt. eigenvalues --    0.69106   0.69415   0.69430   0.69617   0.69800
 Alpha virt. eigenvalues --    0.69870   0.69883   0.70010   0.70219   0.70317
 Alpha virt. eigenvalues --    0.70482   0.70627   0.70676   0.70847   0.71006
 Alpha virt. eigenvalues --    0.71213   0.71235   0.71377   0.71699   0.71765
 Alpha virt. eigenvalues --    0.72068   0.72138   0.72168   0.72252   0.72389
 Alpha virt. eigenvalues --    0.72480   0.72735   0.72808   0.73045   0.73154
 Alpha virt. eigenvalues --    0.73302   0.73403   0.73586   0.73717   0.74074
 Alpha virt. eigenvalues --    0.74240   0.74379   0.74459   0.74560   0.74839
 Alpha virt. eigenvalues --    0.74999   0.75141   0.75277   0.75398   0.75670
 Alpha virt. eigenvalues --    0.75728   0.75850   0.75965   0.76119   0.76213
 Alpha virt. eigenvalues --    0.76506   0.76611   0.76837   0.76982   0.77087
 Alpha virt. eigenvalues --    0.77314   0.77392   0.77552   0.77635   0.77846
 Alpha virt. eigenvalues --    0.78058   0.78158   0.78306   0.78467   0.78518
 Alpha virt. eigenvalues --    0.78630   0.78938   0.79021   0.79271   0.79514
 Alpha virt. eigenvalues --    0.79607   0.79650   0.79910   0.80023   0.80185
 Alpha virt. eigenvalues --    0.80455   0.80533   0.80689   0.80752   0.81124
 Alpha virt. eigenvalues --    0.81195   0.81347   0.81533   0.81789   0.81876
 Alpha virt. eigenvalues --    0.82088   0.82334   0.82368   0.82505   0.82633
 Alpha virt. eigenvalues --    0.82798   0.83013   0.83219   0.83300   0.83464
 Alpha virt. eigenvalues --    0.83654   0.83796   0.84070   0.84261   0.84390
 Alpha virt. eigenvalues --    0.84468   0.84588   0.84670   0.84812   0.84876
 Alpha virt. eigenvalues --    0.85165   0.85285   0.85458   0.85570   0.85721
 Alpha virt. eigenvalues --    0.85909   0.86042   0.86181   0.86244   0.86305
 Alpha virt. eigenvalues --    0.86387   0.86625   0.86873   0.87054   0.87160
 Alpha virt. eigenvalues --    0.87343   0.87449   0.87686   0.87784   0.87830
 Alpha virt. eigenvalues --    0.87974   0.88167   0.88344   0.88410   0.88505
 Alpha virt. eigenvalues --    0.88554   0.88850   0.88996   0.89203   0.89375
 Alpha virt. eigenvalues --    0.89439   0.89592   0.89730   0.89821   0.90116
 Alpha virt. eigenvalues --    0.90258   0.90335   0.90381   0.90556   0.90834
 Alpha virt. eigenvalues --    0.90970   0.91289   0.91400   0.91512   0.91668
 Alpha virt. eigenvalues --    0.91750   0.92033   0.92186   0.92275   0.92417
 Alpha virt. eigenvalues --    0.92735   0.92747   0.93007   0.93142   0.93235
 Alpha virt. eigenvalues --    0.93479   0.93559   0.93790   0.93851   0.94040
 Alpha virt. eigenvalues --    0.94245   0.94485   0.94740   0.94801   0.94867
 Alpha virt. eigenvalues --    0.95016   0.95125   0.95409   0.95585   0.95893
 Alpha virt. eigenvalues --    0.95986   0.96054   0.96259   0.96502   0.96688
 Alpha virt. eigenvalues --    0.96794   0.96989   0.97070   0.97239   0.97312
 Alpha virt. eigenvalues --    0.97491   0.97681   0.97762   0.97964   0.98075
 Alpha virt. eigenvalues --    0.98162   0.98429   0.98567   0.98580   0.98780
 Alpha virt. eigenvalues --    0.98893   0.99060   0.99183   0.99242   0.99697
 Alpha virt. eigenvalues --    0.99754   0.99842   1.00140   1.00271   1.00418
 Alpha virt. eigenvalues --    1.00531   1.00718   1.00775   1.00976   1.01142
 Alpha virt. eigenvalues --    1.01356   1.01578   1.01710   1.01987   1.02165
 Alpha virt. eigenvalues --    1.02301   1.02424   1.02664   1.02755   1.02792
 Alpha virt. eigenvalues --    1.03025   1.03280   1.03499   1.03558   1.03748
 Alpha virt. eigenvalues --    1.03873   1.04021   1.04166   1.04331   1.04523
 Alpha virt. eigenvalues --    1.04622   1.04724   1.04867   1.04967   1.05206
 Alpha virt. eigenvalues --    1.05304   1.05388   1.05770   1.05923   1.06061
 Alpha virt. eigenvalues --    1.06129   1.06216   1.06526   1.06694   1.06837
 Alpha virt. eigenvalues --    1.06950   1.07006   1.07305   1.07347   1.07591
 Alpha virt. eigenvalues --    1.07667   1.07932   1.08017   1.08057   1.08420
 Alpha virt. eigenvalues --    1.08483   1.08604   1.08866   1.08987   1.09155
 Alpha virt. eigenvalues --    1.09431   1.09548   1.09753   1.09766   1.10035
 Alpha virt. eigenvalues --    1.10198   1.10412   1.10470   1.10584   1.10710
 Alpha virt. eigenvalues --    1.10983   1.11155   1.11479   1.11560   1.11772
 Alpha virt. eigenvalues --    1.11852   1.12080   1.12227   1.12323   1.12518
 Alpha virt. eigenvalues --    1.12546   1.12792   1.12841   1.12976   1.13103
 Alpha virt. eigenvalues --    1.13334   1.13478   1.13726   1.13864   1.14095
 Alpha virt. eigenvalues --    1.14309   1.14474   1.14557   1.14743   1.15056
 Alpha virt. eigenvalues --    1.15163   1.15261   1.15281   1.15584   1.15767
[...]
 Alpha virt. eigenvalues --    5.17104   5.17446   5.17609   5.17857   5.18168
 Alpha virt. eigenvalues --    5.18342   5.18456   5.18518   5.18807   5.18994
 Alpha virt. eigenvalues --    5.19273   5.19621   5.19788   5.19916   5.20034
 Alpha virt. eigenvalues --    5.20290   5.20493   5.20675   5.20748   5.21023
 Alpha virt. eigenvalues --    5.21543   5.21654   5.21875   5.22039   5.22362
 Alpha virt. eigenvalues --    5.22615   5.22789   5.22883   5.23211   5.23592
 Alpha virt. eigenvalues --    5.23933   5.23993   5.24204   5.24336   5.24591
 Alpha virt. eigenvalues --    5.25044   5.25293   5.25485   5.25883   5.26437
 Alpha virt. eigenvalues --    5.26585   5.26886   5.27087   5.27365   5.27630
 Alpha virt. eigenvalues --    5.27696   5.28129   5.28530   5.28709   5.29130
 Alpha virt. eigenvalues --    5.29559   5.29768   5.29944   5.30385   5.30508
 Alpha virt. eigenvalues --    5.30837   5.31059   5.31178   5.31378   5.31966
 Alpha virt. eigenvalues --    5.32187   5.32401   5.32884   5.33093   5.33581
 Alpha virt. eigenvalues --    5.33825   5.33927   5.34023   5.34498   5.34674
 Alpha virt. eigenvalues --    5.35040   5.35337   5.35806   5.35867   5.36183
 Alpha virt. eigenvalues --    5.36322   5.36730   5.37088   5.37321   5.37749
 Alpha virt. eigenvalues --    5.38016   5.38122   5.38257   5.38475   5.38694
 Alpha virt. eigenvalues --    5.39123   5.39266   5.39410   5.39566   5.40077
 Alpha virt. eigenvalues --    5.40199   5.40288   5.40778   5.40868   5.41267
 Alpha virt. eigenvalues --    5.41890   5.42230   5.42534   5.42901   5.43177
 Alpha virt. eigenvalues --    5.43426   5.43614   5.43804   5.44066   5.44256
 Alpha virt. eigenvalues --    5.44494   5.45000   5.45528   5.45583   5.45806
 Alpha virt. eigenvalues --    5.46221   5.46491   5.46979   5.47538   5.47776
 Alpha virt. eigenvalues --    5.48032   5.48224   5.48878   5.48983   5.49079
 Alpha virt. eigenvalues --    5.49763   5.49867   5.50178   5.50370   5.50604
 Alpha virt. eigenvalues --    5.51392   5.51711   5.52092   5.52210   5.52587
 Alpha virt. eigenvalues --    5.53342   5.53652   5.54087   5.54407   5.54760
 Alpha virt. eigenvalues --    5.54955   5.55544   5.56078   5.56413   5.56557
 Alpha virt. eigenvalues --    5.56758   5.57010   5.57468   5.57811   5.58313
 Alpha virt. eigenvalues --    5.58836   5.59151   5.59615   5.59942   5.60206
 Alpha virt. eigenvalues --    5.60903   5.61419   5.61523   5.61711   5.62040
 Alpha virt. eigenvalues --    5.62210   5.62281   5.62466   5.62660   5.63044
 Alpha virt. eigenvalues --    5.63222   5.63260   5.63865   5.64008   5.64334
 Alpha virt. eigenvalues --    5.64682   5.64947   5.65290   5.65561   5.65787
 Alpha virt. eigenvalues --    5.66324   5.66590   5.66842   5.67374   5.67590
 Alpha virt. eigenvalues --    5.67817   5.67849   5.68324   5.68724   5.69291
 Alpha virt. eigenvalues --    5.69768   5.69875   5.70382   5.70879   5.71365
 Alpha virt. eigenvalues --    5.71593   5.71861   5.72273   5.72825   5.73312
 Alpha virt. eigenvalues --    5.73439   5.73850   5.74120   5.74592   5.74679
 Alpha virt. eigenvalues --    5.75997   5.76605   5.76742   5.77063   5.77697
 Alpha virt. eigenvalues --    5.78308   5.79536   5.79709   5.79730   5.80667
 Alpha virt. eigenvalues --    5.80843   5.82368   5.83096   5.83233   5.84130
 Alpha virt. eigenvalues --    5.84194   5.86035   5.86379   5.86761   5.87709
 Alpha virt. eigenvalues --    5.87959   5.89177   5.89448   5.89678   5.90256
 Alpha virt. eigenvalues --    5.90422   5.91787   5.93220   5.94316   5.96766
 Alpha virt. eigenvalues --    5.98409   5.98532   5.99408   6.01302   6.01987
 Alpha virt. eigenvalues --    6.02662   6.03502   6.04054   6.04495   6.04745
 Alpha virt. eigenvalues --    6.05474   6.05677   6.06360   6.06587   6.06943
 Alpha virt. eigenvalues --    6.07550   6.08475   6.09004   6.10601   6.10842
 Alpha virt. eigenvalues --    6.11033   6.11695   6.12683   6.13118   6.13692
 Alpha virt. eigenvalues --    6.15500   6.17396   6.18189   6.20588   6.21961
 Alpha virt. eigenvalues --    6.22390   6.25298   6.28141   6.30624   6.31573
 Alpha virt. eigenvalues --    6.32929   6.34947   6.35342   6.35751   6.39073
 Alpha virt. eigenvalues --    6.42565   6.42929   6.43409   6.44241   6.45215
 Alpha virt. eigenvalues --    6.45928   6.47120   6.47567   6.47781   6.48302
 Alpha virt. eigenvalues --    6.50844   6.52540   6.54210   6.58718   6.60397
 Alpha virt. eigenvalues --    6.62627   6.62817   6.66588   6.68253   6.70476
 Alpha virt. eigenvalues --    6.72948   6.74540   6.75755   6.76728   6.77105
 Alpha virt. eigenvalues --    6.77537   6.78938   6.80085   6.80133   6.82495
 Alpha virt. eigenvalues --    6.85144   6.85914   6.85971   6.86556   6.87179
 Alpha virt. eigenvalues --    6.87816   6.88739   6.88960   6.90680   6.91938
 Alpha virt. eigenvalues --    6.92168   6.92888   6.94277   6.97906   6.98033
 Alpha virt. eigenvalues --    6.98276   7.00479   7.00974   7.02311   7.02429
 Alpha virt. eigenvalues --    7.05032   7.08039   7.09081   7.10301   7.10976
 Alpha virt. eigenvalues --    7.13614   7.14413   7.21095   7.22900   7.24407
 Alpha virt. eigenvalues --    7.28288   7.29941   7.34570   7.35178   7.40834
 Alpha virt. eigenvalues --    7.41356   7.45746   7.48667   7.57745   7.59326
 Alpha virt. eigenvalues --    7.64514   7.64653   7.67125   7.76452   7.86928
 Alpha virt. eigenvalues --    7.91526   7.96316   8.01542   8.36617   8.44537
 Alpha virt. eigenvalues --    8.56954   8.64372   8.76262   8.83680   9.02543
 Alpha virt. eigenvalues --    9.04027   9.08797   9.27731   9.55927   9.57762
 Alpha virt. eigenvalues --    9.74165   9.81258  10.15226  10.17303  22.57955
 Alpha virt. eigenvalues --   22.59441  22.62611  22.69078  22.82380  22.88479
 Alpha virt. eigenvalues --   22.89280  22.93492  22.93967  22.97278  23.02870
 Alpha virt. eigenvalues --   23.03879  23.05449  23.07199  23.08330  23.09060
 Alpha virt. eigenvalues --   23.10799  23.11775  23.12343  23.12605  23.13388
 Alpha virt. eigenvalues --   23.15412  23.15757  23.16168  23.17574  23.17894
 Alpha virt. eigenvalues --   23.19239  23.19611  23.19743  23.20317  23.21697
 Alpha virt. eigenvalues --   23.21839  23.22687  23.23600  23.26180  23.27041
 Alpha virt. eigenvalues --   23.27864  23.28342  23.28368  23.29178  23.31332
 Alpha virt. eigenvalues --   23.32025  23.32159  23.32445  23.33899  23.34639
 Alpha virt. eigenvalues --   23.39864  23.40080  23.41522  23.42172  23.43227
 Alpha virt. eigenvalues --   23.43540  23.45188  23.45561  23.45670  23.51326
 Alpha virt. eigenvalues --   23.52718  23.56009  23.57090  23.59762  23.69483
 Alpha virt. eigenvalues --   23.71087  23.73165  23.74401  23.91768  23.92450
 Alpha virt. eigenvalues --   24.11548  24.14379  24.14833  24.26209  32.51426
 Alpha virt. eigenvalues --   32.51557  32.85143  33.09184  33.26718  33.34513
 Alpha virt. eigenvalues --   34.66105  34.71067  35.01400  43.22955  43.91053
 Alpha virt. eigenvalues --   43.93700  43.95572  44.13033  44.22893  44.28070
 Alpha virt. eigenvalues --   44.28074  44.60011  57.40765  57.82631 117.94044
          Condensed to atoms (all electrons):
 Mulliken charges:
               1
     1  C    0.202490
     2  C   -0.073511
     3  C    0.061476
     4  C   -0.211537
     5  C    0.254060
     6  N   -0.291326
     7  H    0.139167
     8  C   -0.110128
     9  C    0.150036
    10  C   -0.215616
    11  C   -0.169034
    12  C   -0.101728
    13  H    0.149360
    14  H    0.155736
    15  H    0.172358
    16  C    0.261122
    17  C    0.104352
    18  C   -0.199391
    19  C   -0.194056
    20  C   -0.170741
    21  H    0.147224
    22  C   -0.183697
    23  H    0.160724
    24  C   -0.149570
    25  H    0.148647
    26  H    0.150898
    27  H    0.151987
    28  F   -0.235037
    29  C   -0.280639
    30  H    0.119398
    31  H    0.105407
    32  H    0.084664
    33  C   -0.055579
    34  C   -0.021182
    35  C    0.020531
    36  H    0.097312
    37  H    0.102733
    38  C    0.000527
    39  H    0.115087
    40  H    0.099921
    41  H    0.072864
    42  H    0.102042
    43  H    0.083725
    44  H    0.097755
    45  N   -0.018411
    46  O   -0.336278
    47  I    0.006619
    48  H    0.184079
    49  C   -0.145429
    50  C   -0.202191
    51  C   -0.177903
    52  C    0.049793
    53  C   -0.119524
    54  C   -0.149767
    55  H    0.151097
    56  H    0.158954
    57  C    0.272482
    58  C   -0.232263
    59  H    0.141496
    60  H    0.149739
    61  C   -0.105005
    62  C   -0.115639
    63  H    0.144424
    64  C    0.210236
    65  C   -0.072917
    66  C   -0.160832
    67  C   -0.104435
    68  C    0.014491
    69  C   -0.207840
    70  C   -0.176807
    71  C   -0.115099
    72  C   -0.140982
    73  H    0.158917
    74  H    0.144049
    75  C   -0.152107
    76  H    0.142366
    77  H    0.150831
    78  H    0.149800
    79  S    0.873102
    80  O   -0.514705
    81  O   -0.562935
    82  S    0.821782
    83  O   -0.518442
    84  O   -0.546729
    85  N   -0.445880
    86  N   -0.333102
    87  C    0.314285
    88  C   -0.128355
    89  C   -0.120923
    90  C    0.202019
    91  O   -0.336985
    92  O   -0.383066
    93  H    0.119209
    94  H    0.107725
    95  H    0.100561
    96  H    0.097987
    97  C    0.099696
    98  C   -0.194549
    99  C    0.001267
   100  C   -0.161795
   101  C    0.170131
   102  N   -0.228113
   103  H    0.141349
   104  C   -0.170305
   105  C    0.304025
   106  C   -0.247200
   107  C   -0.256900
   108  C   -0.096059
   109  H    0.140470
   110  H    0.190725
   111  H    0.147497
   112  C    0.344256
   113  C   -0.011892
   114  C   -0.165670
   115  C   -0.187066
   116  C   -0.177478
   117  H    0.149760
   118  C   -0.188230
   119  H    0.153562
   120  C   -0.146431
   121  H    0.153627
   122  H    0.147492
   123  H    0.152361
   124  F   -0.226277
   125  C   -0.263585
   126  H    0.112547
   127  H    0.109983
   128  H    0.090000
   129  C   -0.052295
   130  C   -0.007888
   131  C    0.015152
   132  H    0.091421
   133  H    0.084338
   134  C   -0.022385
   135  H    0.092995
   136  H    0.087740
   137  H    0.068704
   138  H    0.097803
   139  H    0.079275
   140  H    0.101591
   141  N   -0.110580
   142  O   -0.339992
   143  H    0.142999
   144  H    0.372180
   145  H    0.169829
   146  H    0.151594
 Sum of Mulliken charges =   0.00000
 Mulliken charges with hydrogens summed into heavy atoms:
               1
     1  C    0.202490
     2  C    0.110568
     3  C    0.061476
     4  C   -0.072370
     5  C    0.254060
     6  N   -0.291326
     8  C   -0.110128
     9  C    0.150036
    10  C   -0.066256
    11  C    0.003324
    12  C    0.054009
    16  C    0.261122
    17  C    0.104352
    18  C   -0.052167
    19  C   -0.033332
    20  C   -0.022094
    22  C   -0.032799
    24  C    0.002416
    28  F   -0.235037
    29  C    0.028830
    33  C    0.144467
    34  C    0.193826
    35  C    0.195438
    38  C    0.182007
    45  N   -0.018411
    46  O   -0.336278
    47  I    0.006619
    49  C    0.005668
    50  C   -0.043236
    51  C   -0.177903
    52  C    0.049793
    53  C    0.021971
    54  C   -0.000027
    57  C    0.272482
    58  C   -0.087839
    61  C    0.064824
    62  C   -0.115639
    64  C    0.210236
    65  C   -0.072917
    66  C   -0.160832
    67  C    0.047160
    68  C    0.014491
    69  C   -0.048923
    70  C   -0.032758
    71  C    0.027267
    72  C    0.009848
    75  C   -0.002307
    79  S    0.873102
    80  O   -0.514705
    81  O   -0.562935
    82  S    0.821782
    83  O   -0.518442
    84  O   -0.546729
    85  N   -0.445880
    86  N   -0.333102
    87  C    0.314285
    88  C    0.098579
    89  C    0.077625
    90  C    0.202019
    91  O   -0.336985
    92  O   -0.010886
    97  C    0.099696
    98  C   -0.051551
    99  C    0.001267
   100  C   -0.020446
   101  C    0.170131
   102  N   -0.228113
   104  C   -0.170305
   105  C    0.304025
   106  C   -0.106730
   107  C   -0.109403
   108  C    0.094666
   112  C    0.344256
   113  C   -0.011892
   114  C   -0.015911
   115  C   -0.033504
   116  C   -0.023851
   118  C   -0.040738
   120  C    0.005930
   124  F   -0.226277
   125  C    0.048944
   129  C    0.123464
   130  C    0.172846
   131  C    0.181658
   134  C    0.158481
   141  N   -0.110580
   142  O   -0.339992
 Electronic spatial extent (au):  <R**2>=         112613.1810
 Charge=              0.0000 electrons
 Dipole moment (field-independent basis, Debye):
    X=             10.2419    Y=            -12.4742    Z=            -16.0096  Tot=             22.7334
 Quadrupole moment (field-independent basis, Debye-Ang):
   XX=           -526.0456   YY=           -427.9209   ZZ=           -356.3567
   XY=            -14.7978   XZ=             -4.4970   YZ=            111.6758
 Traceless Quadrupole moment (field-independent basis, Debye-Ang):
   XX=            -89.2712   YY=              8.8535   ZZ=             80.4177
   XY=            -14.7978   XZ=             -4.4970   YZ=            111.6758
 Octapole moment (field-independent basis, Debye-Ang**2):
  XXX=            156.8692  YYY=           3028.7054  ZZZ=           2184.4778  XYY=            -23.3669
  XXY=           1294.8076  XXZ=           1275.8334  XZZ=            -58.8126  YZZ=              1.5625
  YYZ=            163.6222  XYZ=           -110.7714
 Hexadecapole moment (field-independent basis, Debye-Ang**3):
 XXXX=         -26023.1934 YYYY=         -59555.1470 ZZZZ=         -45898.4172 XXXY=           7737.5467
 XXXZ=            304.3787 YYYX=           7671.5953 YYYZ=         -10132.0023 ZZZX=           1510.6670
 ZZZY=          -8678.3532 XXYY=         -15578.6734 XXZZ=         -14522.6767 YYZZ=         -11353.2083
 XXYZ=          -6417.4948 YYXZ=            668.6124 ZZXY=           3458.3077
 N-N= 1.813126600161D+04 E-N=-4.755388125039D+04  KE= 4.647767083932D+03
 Leave Link  601 at Wed Jun 12 17:39:01 2024, MaxMem=  8589934592 cpu:              38.9 elap:               2.0
 (Enter /opt/packages/gaussian/g16RevC.01/g16/l9999.exe)
 Unable to Open any file for archive entry.
 1\1\GINC-R005\SP\RB3LYP\def2TZVPP\C68H59F2I1N6O8S2\BIM2\12-Jun-2024\0\
 \#p b3lyp def2tzvpp scf=maxcycle=128 nosymm scrf=(smd,solvent=propylet
 hanoate) empiricaldispersion=gd3bj\\Title Card Required\\0,1\C,0,1.343
 317,-2.383215,-0.291481\C,0,-0.019189,-2.912064,-0.271931\C,0,-0.54926
 5,-3.233662,1.051131\C,0,0.29218,-3.245711,2.120707\C,0,1.683066,-2.93
 8876,1.923568\N,0,2.140247,-2.466815,0.732025\H,0,-0.100058,-3.496426,
 3.102472\C,0,1.908249,-1.73796,-1.51552\C,0,3.279789,-1.843027,-1.8726
 22\C,0,3.771202,-1.105936,-2.956392\C,0,1.604139,-0.157292,-3.377904\C
 ,0,2.947687,-0.26757,-3.704766\H,0,4.822587,-1.213677,-3.226914\H,0,3.
 352992,0.289154,-4.550836\H,0,0.914163,0.486482,-3.924982\C,0,1.115454
 ,-0.8883,-2.301505\C,0,4.259056,-2.732455,-1.181297\C,0,5.47235,-2.200
 73,-0.72681\C,0,4.030421,-4.108261,-1.045078\C,0,6.430501,-3.023141,-0
 .13114\H,0,5.659078,-1.129264,-0.825432\C,0,4.98676,-4.928616,-0.45213
 9\H,0,3.094556,-4.535738,-1.41023\C,0,6.190627,-4.389093,0.008874\H,0,
 7.367146,-2.590733,0.225807\H,0,4.792878,-5.998582,-0.354956\H,0,6.938
 399,-5.03402,0.474266\F,0,-0.177915,-0.726153,-2.022793\C,0,-1.993881,
 -3.590773,1.178323\H,0,-2.617805,-2.812457,0.715676\H,0,-2.189863,-4.5
 36976,0.649011\H,0,-2.280652,-3.711822,2.230416\C,0,2.297798,-3.461859
 ,4.266991\C,0,4.0131,-2.783232,2.683221\C,0,3.213189,-4.607008,4.68313
 1\H,0,1.254736,-3.763857,4.381728\H,0,2.482419,-2.588607,4.91349\C,0,4
 .842192,-3.963609,3.169928\H,0,4.194066,-2.58858,1.622126\H,0,4.268779
 ,-1.88396,3.267358\H,0,2.963175,-5.506503,4.088201\H,0,3.052785,-4.834
 655,5.745106\H,0,4.637715,-4.842038,2.528587\H,0,5.910129,-3.718551,3.
 095586\N,0,2.590973,-3.069638,2.890677\O,0,4.564278,-4.268066,4.514931
 \I,0,0.13888,-4.910382,-1.391258\H,0,-0.734219,-2.41149,-0.924371\C,0,
 -3.202641,5.208165,-3.196094\C,0,-3.239986,4.316279,-2.151796\C,0,-2.0
 71578,3.603805,-1.753567\C,0,-0.866432,3.819828,-2.486825\C,0,-0.85677
 4,4.760254,-3.554787\C,0,-1.995777,5.443323,-3.900953\H,0,-4.111467,5.
 736441,-3.488846\H,0,-4.179118,4.13807,-1.627408\C,0,-2.077143,2.66584
 3,-0.665411\C,0,0.300401,3.082192,-2.150445\H,0,0.077278,4.919301,-4.0
 97946\H,0,-1.979397,6.159195,-4.72448\C,0,0.260579,2.136889,-1.159473\
 C,0,-0.932462,1.924636,-0.430007\H,0,1.2217,3.26501,-2.70796\C,0,-3.30
 9309,2.50331,0.16964\C,0,-3.988403,1.300146,0.247299\C,0,-3.793862,3.6
 11583,0.94507\C,0,-5.173317,1.151412,1.005246\C,0,-5.00104,3.467554,1.
 692899\C,0,-3.097408,4.853022,1.022927\C,0,-5.682582,2.221078,1.693643
 \C,0,-5.492525,4.569863,2.447084\C,0,-3.590837,5.894855,1.770132\H,0,-
 2.152371,4.971033,0.492488\H,0,-6.605536,2.124045,2.268822\C,0,-4.8085
 84,5.759102,2.482348\H,0,-6.422678,4.44343,3.005157\H,0,-3.036661,6.83
 3496,1.820905\H,0,-5.19147,6.597198,3.067044\S,0,-0.939906,0.6083,0.77
 5435\O,0,-1.340094,1.189859,2.02357\O,0,0.367407,0.008942,0.745346\S,0
 ,-3.31114,-0.155988,-0.526622\O,0,-3.081652,0.173253,-1.906723\O,0,-4.
 222992,-1.239343,-0.284746\N,0,-1.981911,-0.455978,0.258245\N,0,0.1310
 83,-7.029497,-2.658649\C,0,0.076103,-6.986393,-3.969937\C,0,-0.370403,
 -8.286185,-4.60455\C,0,-0.49923,-9.212113,-3.398829\C,0,-0.238513,-8.2
 96962,-2.200912\O,0,-0.327188,-8.600975,-1.041016\O,0,0.362627,-5.9402
 09,-4.62334\H,0,-1.323977,-8.111577,-5.126458\H,0,0.364838,-8.60642,-5
 .357545\H,0,0.249509,-10.016379,-3.390631\H,0,-1.488273,-9.675468,-3.2
 91212\C,0,-1.474559,-5.186408,-7.176516\C,0,-2.276786,-5.344674,-8.290
 054\C,0,-1.919884,-6.310152,-9.254495\C,0,-0.761526,-7.047113,-9.07119
 1\C,0,0.029698,-6.837374,-7.915031\N,0,-0.37695,-5.950673,-6.99009\H,0
 ,-0.442583,-7.747803,-9.840435\C,0,-1.756253,-4.17379,-6.121411\C,0,-0
 .768139,-3.29359,-5.623456\C,0,-1.103006,-2.410865,-4.591195\C,0,-3.36
 3459,-3.240306,-4.522791\C,0,-2.383778,-2.375396,-4.042435\H,0,-0.3439
 21,-1.717735,-4.233636\H,0,-2.618665,-1.655437,-3.253965\H,0,-4.376728
 ,-3.253324,-4.120302\C,0,-3.030078,-4.113093,-5.548078\C,0,0.620634,-3
 .258433,-6.164989\C,0,1.710568,-3.288224,-5.284013\C,0,0.867278,-3.182
 696,-7.543818\C,0,3.01787,-3.265823,-5.772728\H,0,1.528578,-3.358113,-
 4.208016\C,0,2.172332,-3.152415,-8.030548\H,0,0.025942,-3.143421,-8.23
 9927\C,0,3.252887,-3.199994,-7.145965\H,0,3.854148,-3.306243,-5.071842
 \H,0,2.347539,-3.087805,-9.106133\H,0,4.275368,-3.183816,-7.528147\F,0
 ,-3.972145,-4.956878,-5.990894\C,0,-2.775108,-6.49597,-10.472997\H,0,-
 3.777494,-6.842258,-10.179701\H,0,-2.90505,-5.53929,-10.999373\H,0,-2.
 340286,-7.226333,-11.166446\C,0,1.601055,-8.713913,-8.355703\C,0,2.279
 927,-6.899979,-6.884793\C,0,2.859863,-8.475552,-9.175759\H,0,0.786954,
 -9.101318,-8.977121\H,0,1.823751,-9.473612,-7.586014\C,0,3.521548,-6.7
 54532,-7.758943\H,0,1.987845,-5.909621,-6.51399\H,0,2.505793,-7.546044
 ,-6.018261\H,0,2.640143,-7.764286,-9.995897\H,0,3.21499,-9.417858,-9.6
 14227\H,0,3.322335,-5.993897,-8.538956\H,0,4.369579,-6.414341,-7.14878
 2\N,0,1.200914,-7.491043,-7.674035\O,0,3.888268,-7.974429,-8.356369\H,
 0,-3.162601,-4.72357,-8.420818\H,0,0.096245,-5.959971,-5.739967\H,0,1.
 135611,1.538148,-0.905454\H,0,-5.661219,0.177154,1.019211\\Version=ES6
 4L-G16RevC.01\HF=-4852.8964385\RMSD=7.948e-10\Dipole=4.0294672,-4.9077
 092,-6.2986724\Quadrupole=-66.3709786,6.5823924,59.7885862,-11.0018184
 ,-3.3434421,83.0282332\PG=C01 [X(C68H59F2I1N6O8S2)]\\@
 The archive entry for this job was punched.


 LEARN FROM YESTERDAY,
 LIVE FOR TODAY,
 LOOK TO TOMORROW,
 REST THIS AFTERNOON.

           -- SNOOPY
 Job cpu time:       2 days 20 hours 10 minutes 56.1 seconds.
 Elapsed time:       0 days  2 hours  9 minutes  2.3 seconds.
 File lengths (MBytes):  RWF=   8446 Int=      0 D2E=      0 Chk=    733 Scr=      1
 Normal termination of Gaussian 16 at Wed Jun 12 17:39:02 2024.
