
                                 *****************
                                 * O   R   C   A *
                                 *****************

                                            #,                                       
                                            ###                                      
                                            ####                                     
                                            #####                                    
                                            ######                                   
                                           ########,                                 
                                     ,,################,,,,,                         
                               ,,#################################,,                 
                          ,,##########################################,,             
                       ,#########################################, ''#####,          
                    ,#############################################,,   '####,        
                  ,##################################################,,,,####,       
                ,###########''''           ''''###############################       
              ,#####''   ,,,,##########,,,,          '''####'''          '####       
            ,##' ,,,,###########################,,,                        '##       
           ' ,,###''''                  '''############,,,                           
         ,,##''                                '''############,,,,        ,,,,,,###''
      ,#''                                            '''#######################'''  
     '                                                          ''''####''''         
             ,#######,   #######,   ,#######,      ##                                
            ,#'     '#,  ##    ##  ,#'     '#,    #''#        ######   ,####,        
            ##       ##  ##   ,#'  ##            #'  '#       #        #'  '#        
            ##       ##  #######   ##           ,######,      #####,   #    #        
            '#,     ,#'  ##    ##  '#,     ,#' ,#      #,         ##   #,  ,#        
             '#######'   ##     ##  '#######'  #'      '#     #####' # '####'        



                  #######################################################
                  #                        -***-                        #
                  #          Department of theory and spectroscopy      #
                  #    Directorship and core code : Frank Neese         #
                  #        Max Planck Institute fuer Kohlenforschung    #
                  #                Kaiser Wilhelm Platz 1               #
                  #                 D-45470 Muelheim/Ruhr               #
                  #                      Germany                        #
                  #                                                     #
                  #                  All rights reserved                #
                  #                        -***-                        #
                  #######################################################


                         Program Version 5.0.3 -  RELEASE  -


 With contributions from (in alphabetic order):
   Daniel Aravena         : Magnetic Suceptibility
   Michael Atanasov       : Ab Initio Ligand Field Theory (pilot matlab implementation)
   Alexander A. Auer      : GIAO ZORA, VPT2 properties, NMR spectrum
   Ute Becker             : Parallelization
   Giovanni Bistoni       : ED, misc. LED, open-shell LED, HFLD
   Martin Brehm           : Molecular dynamics
   Dmytro Bykov           : SCF Hessian
   Vijay G. Chilkuri      : MRCI spin determinant printing, contributions to CSF-ICE
   Dipayan Datta          : RHF DLPNO-CCSD density
   Achintya Kumar Dutta   : EOM-CC, STEOM-CC
   Dmitry Ganyushin       : Spin-Orbit,Spin-Spin,Magnetic field MRCI
   Miquel Garcia          : C-PCM and meta-GGA Hessian, CC/C-PCM, Gaussian charge scheme
   Yang Guo               : DLPNO-NEVPT2, F12-NEVPT2, CIM, IAO-localization
   Andreas Hansen         : Spin unrestricted coupled pair/coupled cluster methods
   Benjamin Helmich-Paris : MC-RPA, TRAH-SCF, COSX integrals
   Lee Huntington         : MR-EOM, pCC
   Robert Izsak           : Overlap fitted RIJCOSX, COSX-SCS-MP3, EOM
   Marcus Kettner         : VPT2
   Christian Kollmar      : KDIIS, OOCD, Brueckner-CCSD(T), CCSD density, CASPT2, CASPT2-K
   Simone Kossmann        : Meta GGA functionals, TD-DFT gradient, OOMP2, MP2 Hessian
   Martin Krupicka        : Initial AUTO-CI
   Lucas Lang             : DCDCAS
   Marvin Lechner         : AUTO-CI (C++ implementation), FIC-MRCC
   Dagmar Lenk            : GEPOL surface, SMD
   Dimitrios Liakos       : Extrapolation schemes; Compound Job, initial MDCI parallelization
   Dimitrios Manganas     : Further ROCIS development; embedding schemes
   Dimitrios Pantazis     : SARC Basis sets
   Anastasios Papadopoulos: AUTO-CI, single reference methods and gradients
   Taras Petrenko         : DFT Hessian,TD-DFT gradient, ASA, ECA, R-Raman, ABS, FL, XAS/XES, NRVS
   Peter Pinski           : DLPNO-MP2, DLPNO-MP2 Gradient
   Christoph Reimann      : Effective Core Potentials
   Marius Retegan         : Local ZFS, SOC
   Christoph Riplinger    : Optimizer, TS searches, QM/MM, DLPNO-CCSD(T), (RO)-DLPNO pert. Triples
   Tobias Risthaus        : Range-separated hybrids, TD-DFT gradient, RPA, STAB
   Michael Roemelt        : Original ROCIS implementation
   Masaaki Saitow         : Open-shell DLPNO-CCSD energy and density
   Barbara Sandhoefer     : DKH picture change effects
   Avijit Sen             : IP-ROCIS
   Kantharuban Sivalingam : CASSCF convergence, NEVPT2, FIC-MRCI
   Bernardo de Souza      : ESD, SOC TD-DFT
   Georgi Stoychev        : AutoAux, RI-MP2 NMR, DLPNO-MP2 response
   Willem Van den Heuvel  : Paramagnetic NMR
   Boris Wezisla          : Elementary symmetry handling
   Frank Wennmohs         : Technical directorship


 We gratefully acknowledge several colleagues who have allowed us to
 interface, adapt or use parts of their codes:
   Stefan Grimme, W. Hujo, H. Kruse, P. Pracht,  : VdW corrections, initial TS optimization,
                  C. Bannwarth, S. Ehlert          DFT functionals, gCP, sTDA/sTD-DF
   Ed Valeev, F. Pavosevic, A. Kumar             : LibInt (2-el integral package), F12 methods
   Garnet Chan, S. Sharma, J. Yang, R. Olivares  : DMRG
   Ulf Ekstrom                                   : XCFun DFT Library
   Mihaly Kallay                                 : mrcc  (arbitrary order and MRCC methods)
   Jiri Pittner, Ondrej Demel                    : Mk-CCSD
   Frank Weinhold                                : gennbo (NPA and NBO analysis)
   Christopher J. Cramer and Donald G. Truhlar   : smd solvation model
   Lars Goerigk                                  : TD-DFT with DH, B97 family of functionals
   V. Asgeirsson, H. Jonsson                     : NEB implementation
   FAccTs GmbH                                   : IRC, NEB, NEB-TS, DLPNO-Multilevel, CI-OPT
                                                   MM, QMMM, 2- and 3-layer-ONIOM, Crystal-QMMM,
                                                   LR-CPCM, SF, NACMEs, symmetry and pop. for TD-DFT,
                                                   nearIR, NL-DFT gradient (VV10), updates on ESD,
                                                   ML-optimized integration grids
   S Lehtola, MJT Oliveira, MAL Marques          : LibXC Library
   Liviu Ungur et al                             : ANISO software


 Your calculation uses the libint2 library for the computation of 2-el integrals
 For citations please refer to: http://libint.valeyev.net

 Your ORCA version has been built with support for libXC version: 5.1.0
 For citations please refer to: https://tddft.org/programs/libxc/

 This ORCA versions uses:
   CBLAS   interface :  Fast vector & matrix operations
   LAPACKE interface :  Fast linear algebra routines
   SCALAPACK package :  Parallel linear algebra routines
   Shared memory     :  Shared parallel matrices
   BLAS/LAPACK       :  OpenBLAS 0.3.15  USE64BITINT DYNAMIC_ARCH NO_AFFINITY Zen SINGLE_THREADED
        Core in use  :  Zen
   Copyright (c) 2011-2014, The OpenBLAS Project


================================================================================

cite the ECPs for I  [Def2-ECP] as follows:
Ce-Yb(ecp-28): M. Dolg, H. Stoll, H.Preuss, J. Chem. Phys., 1989, 90, 1730-1734.
Y-Cd(ecp-28), Hf-Hg(ecp-46): D. Andrae,U. Haeussermann, M. Dolg, H. Stoll, H. Preuss, Theor. Chim. Acta, 1990, 77, 123-141.
In-Sb(ecp-28), Tl-Bi(ecp-46): B. Metz, H. Stoll, M. Dolg, J. Chem. Phys., 2000, 113, 2563-2569.
Te-Xe(ecp-28), Po-Rn(ecp-46): K. A. Peterson, D. Figgen, E. Goll, H. Stoll, M. Dolg, J. Chem. Phys., 2003, 119, 11113-11123.
Rb(ecp-28), Cs(ecp-46): T. Leininger, A. Nicklass, W. Kuechle, H. Stoll, M. Dolg, A. Bergner, Chem. Phys. Lett., 1996, 255, 274-280.
Sr(ecp-28), Ba(ecp-46): M. Kaupp, P. V. Schleyer, H. Stoll and H. Preuss, J. Chem. Phys., 1991, 94, 1360-1366.
La(ecp-46): M. Dolg, H. Stoll, A. Savin, H. Preuss, Theor. Chim. Acta, 1989, 75, 173-194.
Lu(ecp-28): X. Cao, M. Dolg, J. Chem. Phys., 2001, 115, 7348-7355.

ECP parameters for I  [Def2-ECP] have been obtained from:
TURBOMOLE (7.0.2)

----- Orbital basis set information -----
Your calculation utilizes the basis: def2-SVP
   F. Weigend and R. Ahlrichs, Phys. Chem. Chem. Phys. 7, 3297 (2005).

================================================================================
                                        WARNINGS
                       Please study these warnings very carefully!
================================================================================


INFO   : the flag for use of the SHARK integral package has been found!

================================================================================
                                       INPUT FILE
================================================================================
NAME = SaxR_2m_4s_HF_def2-svp.inp
|  1> #BASE_TS_S-ax-R_2m.mol2_obabel_ClC#CC3=CC=C_C_F__F_F_C=C3_tmp.xyz_to.mol2.xyz
|  2> %maxcore 6000
|  3> %pal nprocs 8 end
|  4> ! HF def2-svp NBO 
|  5> %nbo 
|  6>  NBOKEYLIST = "$NBO NPA NBBP ARCHIVE $END"
|  7> end
|  8> 
|  9> * xyz 0  1
| 10> C     6.5910    -3.1870    -0.7502
| 11> C     5.1559    -3.5848    -1.1936
| 12> C     4.3412    -4.2770    -0.1179
| 13> C     4.9541    -4.5423     1.0656
| 14> C     6.3047    -4.2103     1.2945
| 15> N     7.0648    -3.5324     0.4165
| 16> H     4.3426    -4.9701     1.8331
| 17> C     7.4946    -2.5343    -1.6708
| 18> C     8.8307    -3.0144    -1.8339
| 19> C     9.7192    -2.2997    -2.6496
| 20> C     8.0047    -0.6941    -3.1935
| 21> C     9.3210    -1.1441    -3.3294
| 22> H    10.7164    -2.6461    -2.7856
| 23> H     7.6845     0.1844    -3.7008
| 24> C     7.1091    -1.3525    -2.3654
| 25> F     5.9173    -0.7767    -2.1278
| 26> N     6.8905    -4.6110     2.5138
| 27> I     4.7496    -3.7685    -3.2253
| 28> H     4.5660    -2.1861    -0.9241
| 29> C     2.0740     5.0162    -2.0422
| 30> C     2.0228     3.8120    -1.3520
| 31> C     3.1972     3.1799    -0.9151
| 32> C     4.4588     3.7905    -1.2310
| 33> C     4.4904     5.0205    -1.9216
| 34> C     3.3028     5.6188    -2.3284
| 35> H     1.1680     5.4883    -2.3528
| 36> H     1.0816     3.3541    -1.1540
| 37> C     3.1432     1.9011    -0.2262
| 38> C     5.6394     3.1401    -0.8571
| 39> H     5.4286     5.4663    -2.1701
| 40> H     3.3305     6.5484    -2.8608
| 41> C     5.5883     1.9069    -0.1795
| 42> C     4.3719     1.2374     0.0582
| 43> H     6.5925     3.5729    -1.0982
| 44> C     1.8466     1.3361     0.1625
| 45> C     1.3863     0.0912    -0.3689
| 46> C     0.9984     2.0332     1.1097
| 47> C     0.1549    -0.4392     0.0564
| 48> C    -0.2790     1.4975     1.4827
| 49> C     1.4280     3.2255     1.7238
| 50> C    -0.6840     0.2694     0.9446
| 51> C    -1.0878     2.1965     2.4020
| 52> C     0.6258     3.8937     2.6387
| 53> H     2.3920     3.6143     1.4851
| 54> H    -1.6260    -0.1535     1.2404
| 55> C    -0.6307     3.3834     2.9759
| 56> H    -2.0390     1.7987     2.6838
| 57> H     0.9669     4.7994     3.0821
| 58> H    -1.2493     3.9048     3.6773
| 59> S     4.3008    -0.4028     0.7011
| 60> O     3.4161    -0.3863     1.8374
| 61> O     5.6191    -0.9419     0.9086
| 62> S     2.4609    -0.7366    -1.4880
| 63> O     2.9384     0.2511    -2.4297
| 64> O     1.8300    -1.8999    -2.0546
| 65> N     3.5980    -1.2360    -0.4677
| 66> C     8.2948    -4.3771     2.8339
| 67> H     8.9256    -4.7430     2.0195
| 68> H     8.4636    -3.2968     2.9356
| 69> C     6.2682    -5.5384     3.4738
| 70> H     5.7151    -6.3310     2.9576
| 71> H     5.5509    -4.9731     4.0816
| 72> C     7.4116    -6.1056     4.3265
| 73> H     7.6936    -7.1057     3.9693
| 74> H     7.1254    -6.2189     5.3815
| 75> C     8.5817    -5.1277     4.1452
| 76> H     9.5524    -5.6423     4.1183
| 77> H     8.6263    -4.4251     4.9895
| 78> Cl     2.6729    -3.8733     0.1003
| 79> O     9.1853    -4.1627    -1.1485
| 80> C    10.5195    -4.5831    -1.3055
| 81> H    10.6973    -4.8512    -2.3485
| 82> H    11.2036    -3.7935    -0.9864
| 83> H    10.6807    -5.4599    -0.6782
| 84> C    10.2651    -0.4427    -4.2225
| 85> H    11.2859    -0.5115    -3.8416
| 86> H    10.0133     0.6157    -4.3030
| 87> H    10.2464    -0.8749    -5.2261
| 88> C     6.8623     1.4278     0.2394
| 89> C     7.9656     1.0482     0.5255
| 90> C     9.2668     0.5342     0.8136
| 91> C    10.3866     1.3649     0.7673
| 92> C    11.6566     0.8390     1.0245
| 93> C    11.8188    -0.5237     1.3308
| 94> C    13.1877    -1.1041     1.5656
| 95> F    13.2067    -2.1193     2.4746
| 96> F    13.7454    -1.6107     0.4289
| 97> F    14.0836    -0.1837     2.0304
| 98> C    10.6852    -1.3470     1.3686
| 99> C     9.4188    -0.8166     1.1171
|100> H    10.2751     2.4178     0.5231
|101> H    12.5213     1.4983     0.9784
|102> H    10.7641    -2.4123     1.5816
|103> H     8.5467    -1.4731     1.1387
|104> C    -0.3683    -1.6850    -0.3940
|105> C    -0.8166    -2.7337    -0.7722
|106> C    -1.2939    -3.9913    -1.2546
|107> C    -2.5756    -4.4331    -0.9236
|108> C    -3.0358    -5.6627    -1.4034
|109> C    -2.2151    -6.4674    -2.2109
|110> C    -2.7247    -7.7806    -2.7492
|111> F    -3.3782    -7.6353    -3.9363
|112> F    -1.7419    -8.6965    -2.9739
|113> F    -3.6135    -8.3916    -1.9136
|114> C    -0.9295    -6.0100    -2.5397
|115> C    -0.4716    -4.7791    -2.0627
|116> H    -3.2184    -3.8246    -0.2923
|117> H    -4.0391    -5.9949    -1.1421
|118> H    -0.2732    -6.6099    -3.1684
|119> H     0.5308    -4.4357    -2.3213
|120> *
|121> 
|122> 
|123> 
|124> 
|125>                          ****END OF INPUT****
================================================================================

                       ****************************
                       * Single Point Calculation *
                       ****************************

---------------------------------
CARTESIAN COORDINATES (ANGSTROEM)
---------------------------------
  C      6.591000   -3.187000   -0.750200
  C      5.155900   -3.584800   -1.193600
  C      4.341200   -4.277000   -0.117900
  C      4.954100   -4.542300    1.065600
  C      6.304700   -4.210300    1.294500
  N      7.064800   -3.532400    0.416500
  H      4.342600   -4.970100    1.833100
  C      7.494600   -2.534300   -1.670800
  C      8.830700   -3.014400   -1.833900
  C      9.719200   -2.299700   -2.649600
  C      8.004700   -0.694100   -3.193500
  C      9.321000   -1.144100   -3.329400
  H     10.716400   -2.646100   -2.785600
  H      7.684500    0.184400   -3.700800
  C      7.109100   -1.352500   -2.365400
  F      5.917300   -0.776700   -2.127800
  N      6.890500   -4.611000    2.513800
  I      4.749600   -3.768500   -3.225300
  H      4.566000   -2.186100   -0.924100
  C      2.074000    5.016200   -2.042200
  C      2.022800    3.812000   -1.352000
  C      3.197200    3.179900   -0.915100
  C      4.458800    3.790500   -1.231000
  C      4.490400    5.020500   -1.921600
  C      3.302800    5.618800   -2.328400
  H      1.168000    5.488300   -2.352800
  H      1.081600    3.354100   -1.154000
  C      3.143200    1.901100   -0.226200
  C      5.639400    3.140100   -0.857100
  H      5.428600    5.466300   -2.170100
  H      3.330500    6.548400   -2.860800
  C      5.588300    1.906900   -0.179500
  C      4.371900    1.237400    0.058200
  H      6.592500    3.572900   -1.098200
  C      1.846600    1.336100    0.162500
  C      1.386300    0.091200   -0.368900
  C      0.998400    2.033200    1.109700
  C      0.154900   -0.439200    0.056400
  C     -0.279000    1.497500    1.482700
  C      1.428000    3.225500    1.723800
  C     -0.684000    0.269400    0.944600
  C     -1.087800    2.196500    2.402000
  C      0.625800    3.893700    2.638700
  H      2.392000    3.614300    1.485100
  H     -1.626000   -0.153500    1.240400
  C     -0.630700    3.383400    2.975900
  H     -2.039000    1.798700    2.683800
  H      0.966900    4.799400    3.082100
  H     -1.249300    3.904800    3.677300
  S      4.300800   -0.402800    0.701100
  O      3.416100   -0.386300    1.837400
  O      5.619100   -0.941900    0.908600
  S      2.460900   -0.736600   -1.488000
  O      2.938400    0.251100   -2.429700
  O      1.830000   -1.899900   -2.054600
  N      3.598000   -1.236000   -0.467700
  C      8.294800   -4.377100    2.833900
  H      8.925600   -4.743000    2.019500
  H      8.463600   -3.296800    2.935600
  C      6.268200   -5.538400    3.473800
  H      5.715100   -6.331000    2.957600
  H      5.550900   -4.973100    4.081600
  C      7.411600   -6.105600    4.326500
  H      7.693600   -7.105700    3.969300
  H      7.125400   -6.218900    5.381500
  C      8.581700   -5.127700    4.145200
  H      9.552400   -5.642300    4.118300
  H      8.626300   -4.425100    4.989500
  Cl     2.672900   -3.873300    0.100300
  O      9.185300   -4.162700   -1.148500
  C     10.519500   -4.583100   -1.305500
  H     10.697300   -4.851200   -2.348500
  H     11.203600   -3.793500   -0.986400
  H     10.680700   -5.459900   -0.678200
  C     10.265100   -0.442700   -4.222500
  H     11.285900   -0.511500   -3.841600
  H     10.013300    0.615700   -4.303000
  H     10.246400   -0.874900   -5.226100
  C      6.862300    1.427800    0.239400
  C      7.965600    1.048200    0.525500
  C      9.266800    0.534200    0.813600
  C     10.386600    1.364900    0.767300
  C     11.656600    0.839000    1.024500
  C     11.818800   -0.523700    1.330800
  C     13.187700   -1.104100    1.565600
  F     13.206700   -2.119300    2.474600
  F     13.745400   -1.610700    0.428900
  F     14.083600   -0.183700    2.030400
  C     10.685200   -1.347000    1.368600
  C      9.418800   -0.816600    1.117100
  H     10.275100    2.417800    0.523100
  H     12.521300    1.498300    0.978400
  H     10.764100   -2.412300    1.581600
  H      8.546700   -1.473100    1.138700
  C     -0.368300   -1.685000   -0.394000
  C     -0.816600   -2.733700   -0.772200
  C     -1.293900   -3.991300   -1.254600
  C     -2.575600   -4.433100   -0.923600
  C     -3.035800   -5.662700   -1.403400
  C     -2.215100   -6.467400   -2.210900
  C     -2.724700   -7.780600   -2.749200
  F     -3.378200   -7.635300   -3.936300
  F     -1.741900   -8.696500   -2.973900
  F     -3.613500   -8.391600   -1.913600
  C     -0.929500   -6.010000   -2.539700
  C     -0.471600   -4.779100   -2.062700
  H     -3.218400   -3.824600   -0.292300
  H     -4.039100   -5.994900   -1.142100
  H     -0.273200   -6.609900   -3.168400
  H      0.530800   -4.435700   -2.321300

----------------------------
CARTESIAN COORDINATES (A.U.)
----------------------------
  NO LB      ZA    FRAG     MASS         X           Y           Z
   0 C     6.0000    0    12.011   12.455185   -6.022557   -1.417673
   1 C     6.0000    0    12.011    9.743239   -6.774290   -2.255577
   2 C     6.0000    0    12.011    8.203679   -8.082359   -0.222799
   3 C     6.0000    0    12.011    9.361892   -8.583703    2.013692
   4 C     6.0000    0    12.011   11.914156   -7.956314    2.446250
   5 N     7.0000    0    14.007   13.350537   -6.675269    0.787071
   6 H     1.0000    0     1.008    8.206325   -9.392128    3.464057
   7 C     6.0000    0    12.011   14.162741   -4.789133   -3.157354
   8 C     6.0000    0    12.011   16.687605   -5.696390   -3.465569
   9 C     6.0000    0    12.011   18.366626   -4.345803   -5.007018
  10 C     6.0000    0    12.011   15.126691   -1.311659   -6.034840
  11 C     6.0000    0    12.011   17.614137   -2.162036   -6.291654
  12 H     1.0000    0     1.008   20.251061   -5.000404   -5.264021
  13 H     1.0000    0     1.008   14.521600    0.348465   -6.993498
  14 C     6.0000    0    12.011   13.434252   -2.555855   -4.469958
  15 F     9.0000    0    18.998   11.182076   -1.467750   -4.020959
  16 N     7.0000    0    14.007   13.021158   -8.713527    4.750394
  17 I    25.0000*   0   126.900    8.975443   -7.121433   -6.094934
  18 H     1.0000    0     1.008    8.628490   -4.131130   -1.746296
  19 C     6.0000    0    12.011    3.919292    9.479244   -3.859199
  20 C     6.0000    0    12.011    3.822538    7.203636   -2.554910
  21 C     6.0000    0    12.011    6.041832    6.009140   -1.729288
  22 C     6.0000    0    12.011    8.425911    7.163007   -2.326253
  23 C     6.0000    0    12.011    8.485626    9.487370   -3.631298
  24 C     6.0000    0    12.011    6.241387   10.617993   -4.400038
  25 H     1.0000    0     1.008    2.207200   10.371384   -4.446148
  26 H     1.0000    0     1.008    2.043928    6.338330   -2.180744
  27 C     6.0000    0    12.011    5.939787    3.592558   -0.427456
  28 C     6.0000    0    12.011   10.656922    5.933929   -1.619684
  29 H     1.0000    0     1.008   10.258567   10.329810   -4.100895
  30 H     1.0000    0     1.008    6.293733   12.374683   -5.406129
  31 C     6.0000    0    12.011   10.560357    3.603519   -0.339206
  32 C     6.0000    0    12.011    8.261694    2.338347    0.109982
  33 H     1.0000    0     1.008   12.458020    6.751803   -2.075297
  34 C     6.0000    0    12.011    3.489568    2.524863    0.307080
  35 C     6.0000    0    12.011    2.619727    0.172343   -0.697120
  36 C     6.0000    0    12.011    1.886703    3.842191    2.097029
  37 C     6.0000    0    12.011    0.292719   -0.829968    0.106581
  38 C     6.0000    0    12.011   -0.527234    2.829865    2.801897
  39 C     6.0000    0    12.011    2.698529    6.095312    3.257510
  40 C     6.0000    0    12.011   -1.292573    0.509092    1.785035
  41 C     6.0000    0    12.011   -2.055644    4.150783    4.539122
  42 C     6.0000    0    12.011    1.182591    7.358027    4.986420
  43 H     1.0000    0     1.008    4.520225    6.830037    2.806432
  44 H     1.0000    0     1.008   -3.072695   -0.290073    2.344016
  45 C     6.0000    0    12.011   -1.191850    6.393699    5.623636
  46 H     1.0000    0     1.008   -3.853152    3.399050    5.071647
  47 H     1.0000    0     1.008    1.827176    9.069552    5.824325
  48 H     1.0000    0     1.008   -2.360835    7.379003    6.949090
  49 S    16.0000    0    32.060    8.127334   -0.761182    1.324887
  50 O     8.0000    0    15.999    6.455493   -0.730001    3.472183
  51 O     8.0000    0    15.999   10.618560   -1.779933    1.717005
  52 S    16.0000    0    32.060    4.650427   -1.391972   -2.811912
  53 O     8.0000    0    15.999    5.552771    0.474510   -4.591468
  54 O     8.0000    0    15.999    3.458199   -3.590291   -3.882631
  55 N     7.0000    0    14.007    6.799235   -2.335702   -0.883825
  56 C     6.0000    0    12.011   15.674900   -8.271520    5.355295
  57 H     1.0000    0     1.008   16.866940   -8.962971    3.816302
  58 H     1.0000    0     1.008   15.993886   -6.230049    5.547480
  59 C     6.0000    0    12.011   11.845181  -10.466059    6.564531
  60 H     1.0000    0     1.008   10.799974  -11.963856    5.589054
  61 H     1.0000    0     1.008   10.489681   -9.397797    7.713106
  62 C     6.0000    0    12.011   14.005894  -11.537912    8.175900
  63 H     1.0000    0     1.008   14.538797  -13.427827    7.500890
  64 H     1.0000    0     1.008   13.465055  -11.752018   10.169561
  65 C     6.0000    0    12.011   16.217063   -9.689949    7.833293
  66 H     1.0000    0     1.008   18.051420  -10.662402    7.782459
  67 H     1.0000    0     1.008   16.301345   -8.362227    9.428789
  68 Cl   17.0000    0    35.453    5.051049   -7.319476    0.189540
  69 O     8.0000    0    15.999   17.357701   -7.866363   -2.170350
  70 C     6.0000    0    12.011   19.878974   -8.660804   -2.467037
  71 H     1.0000    0     1.008   20.214967   -9.167439   -4.438022
  72 H     1.0000    0     1.008   21.171736   -7.168676   -1.864026
  73 H     1.0000    0     1.008   20.183598  -10.317716   -1.281612
  74 C     6.0000    0    12.011   19.398228   -0.836582   -7.979369
  75 H     1.0000    0     1.008   21.327260   -0.966595   -7.259572
  76 H     1.0000    0     1.008   18.922395    1.163504   -8.131492
  77 H     1.0000    0     1.008   19.362890   -1.653321   -9.875898
  78 C     6.0000    0    12.011   12.967868    2.698151    0.452400
  79 C     6.0000    0    12.011   15.052802    1.980811    0.993051
  80 C     6.0000    0    12.011   17.511714    1.009492    1.537481
  81 C     6.0000    0    12.011   19.627829    2.579287    1.449987
  82 C     6.0000    0    12.011   22.027782    1.585480    1.936024
  83 C     6.0000    0    12.011   22.334295   -0.989650    2.514848
  84 C     6.0000    0    12.011   24.921141   -2.086447    2.958555
  85 F     9.0000    0    18.998   24.957046   -4.004897    4.676316
  86 F     9.0000    0    18.998   25.975042   -3.043782    0.810504
  87 F     9.0000    0    18.998   26.614147   -0.347143    3.836900
  88 C     6.0000    0    12.011   20.192102   -2.545461    2.586279
  89 C     6.0000    0    12.011   17.798953   -1.543150    2.111013
  90 H     1.0000    0     1.008   19.417125    4.568980    0.988516
  91 H     1.0000    0     1.008   23.661828    2.831377    1.848908
  92 H     1.0000    0     1.008   20.341201   -4.558586    2.988791
  93 H     1.0000    0     1.008   16.150922   -2.783756    2.151831
  94 C     6.0000    0    12.011   -0.695986   -3.184189   -0.744552
  95 C     6.0000    0    12.011   -1.543150   -5.165944   -1.459247
  96 C     6.0000    0    12.011   -2.445117   -7.542464   -2.370850
  97 C     6.0000    0    12.011   -4.867179   -8.377345   -1.745351
  98 C     6.0000    0    12.011   -5.736831  -10.700952   -2.652042
  99 C     6.0000    0    12.011   -4.185932  -12.221615   -4.177996
 100 C     6.0000    0    12.011   -5.148937  -14.703203   -5.195235
 101 F     9.0000    0    18.998   -6.383873  -14.428626   -7.438529
 102 F     9.0000    0    18.998   -3.291714  -16.434003   -5.619857
 103 F     9.0000    0    18.998   -6.828525  -15.857826   -3.616180
 104 C     6.0000    0    12.011   -1.756500  -11.357254   -4.799337
 105 C     6.0000    0    12.011   -0.891195   -9.031190   -3.897938
 106 H     1.0000    0     1.008   -6.081895   -7.227447   -0.552367
 107 H     1.0000    0     1.008   -7.632793  -11.328719   -2.158256
 108 H     1.0000    0     1.008   -0.516273  -12.490901   -5.987408
 109 H     1.0000    0     1.008    1.003067   -8.382258   -4.386621
* core charge reduced due to ECP

--------------------------------
INTERNAL COORDINATES (ANGSTROEM)
--------------------------------
 C      0   0   0     0.000000000000     0.00000000     0.00000000
 C      1   0   0     1.553821228456     0.00000000     0.00000000
 C      2   1   0     1.516577535110   114.24233957     0.00000000
 C      3   2   1     1.358934417108   117.68101554   356.37096647
 C      4   3   2     1.409517495457   121.84411474   359.07145376
 N      1   2   3     1.305747483245   121.49233836     5.40335416
 H      4   3   2     1.070514521153   116.40906709   175.95585715
 C      1   2   3     1.445688282445   120.74013774   179.21095860
 C      8   1   2     1.429076915355   120.35573225   228.99609158
 C      9   8   1     1.401996729668   119.18628705   185.14888439
 C     10   9   8     2.411076278345    91.15009262   358.56669151
 C     11  10   9     1.397717603810    30.44277546   179.87867412
 H     10   9   8     1.064376249265   120.14416404   180.30060785
 H     11  10   9     1.063787375372   150.63964199   179.57999042
 C     11  10   9     1.386123923031    90.47961597     1.61825313
 F     15  11  10     1.344762670511   118.34615632   172.00625285
 N      5   4   3     1.410820548475   118.11972380   184.67529672
 I      2   1   3     2.080055352629   118.79936149   201.11909581
 H      2   1   3     1.541743801674    94.08531242    97.18786284
 C     16  15  11     6.952407687988   148.08854141   338.98574522
 C     20  16  15     1.388918687325    45.90008916   206.41581294
 C     21  20  16     1.403441263466   120.95364291    39.37080548
 C     22  21  20     1.436753190357   118.35472235   358.32660759
 C     23  22  21     1.410966661548   119.85193352     2.27560430
 C     24  23  22     1.390626797527   119.94110819   358.13995956
 H     20  16  15     1.067795284687   146.49597587   128.60372777
 H     21  20  16     1.065238869925   119.84304070   219.75749385
 C     22  21  20     1.453557240015   120.84362779   181.75156562
 C     23  22  21     1.398798673863   118.99543729   182.97583885
 H     24  23  22     1.068039854125   119.82940601   180.98265337
 H     25  24  23     1.071621766296   119.76721803   180.57293688
 C     29  23  22     1.408025287415   120.34751791   359.89287851
 C     32  29  23     1.408673312021   121.92454234     4.78770687
 H     29  23  22     1.074171615711   120.10196476   179.02361157
 C     28  22  21     1.466793867590   119.82264452   352.61723033
 C     35  28  22     1.429698590613   121.43339201   117.56068251
 C     35  28  22     1.450027410086   120.33170027   297.24251307
 C     36  35  28     1.406609473166   119.85502963   178.14514540
 C     37  35  28     1.434522307251   120.74425557   179.17568645
 C     37  35  28     1.408280604141   120.89236631   356.78405700
 C     39  37  35     1.400644930023   119.01376100     1.64658171
 C     39  37  35     1.409918767164   119.68404958   180.23502282
 C     40  37  35     1.388185178569   121.24080735   180.46096371
 H     40  37  35     1.066507913707   119.12913485   359.91573683
 H     41  39  37     1.074107094288   119.53853567   178.20661296
 C     42  39  37     1.395361325965   120.12968447   358.11772408
 H     42  39  37     1.068848689011   119.86102469   180.15510935
 H     43  40  37     1.064539928796   119.92551818   180.69328051
 H     46  42  39     1.070740808973   119.62810652   180.34365128
 S     33  32  29     1.763131208958   122.58043053   171.30318939
 O     50  33  32     1.440188886917   107.56628971   128.09342186
 O     50  33  32     1.439305370656   111.35054791   358.73746009
 S     36  35  28     1.758522905737   116.72349011     0.93306580
 O     53  36  35     1.445806498118   107.14166953   313.88119704
 O     53  36  35     1.439561481841   111.28847370   185.94090391
 N     19   2   1     1.431088735893   156.47084306   221.45691967
 C     17   5   4     1.459188716376   122.93332653   177.11883396
 H     57  17   5     1.093178306590   109.77022690   308.63011517
 H     57  17   5     1.098127688386   109.02268180    66.78709215
 C     17   5   4     1.472728097783   124.52477842    10.49552342
 H     60  17   5     1.095717486399   111.20563630    36.64148620
 H     60  17   5     1.097043399324   108.23665167   278.55356597
 C     60  17   5     1.534984263763   106.26293495   158.44914159
 H     63  60  17     1.098779254446   110.29878062   260.04478274
 H     63  60  17     1.098986956247   112.17179643   141.42731958
 C     63  60  17     1.535673178121   105.46694745    19.04122606
 H     66  63  60     1.098997388532   112.19206169   216.57789137
 H     66  63  60     1.099308150611   110.31803165    98.14813561
 Cl     3   2   1     1.730262933776   120.06057032   138.28890066
 O      9   8   1     1.383512634565   117.51132877     4.02788744
 C     70   9   8     1.407648677760   115.82066677   181.68828059
 H     71  70   9     1.091484974702   109.53208697   296.11300518
 H     71  70   9     1.092376208090   110.18891848    58.21363547
 H     71  70   9     1.090077506419   108.43334212   177.07706849
 C     12  11  10     1.476791921701   120.52680256   177.47181131
 H     75  12  11     1.091719235884   110.90574929   148.44310236
 H     75  12  11     1.090914318359   110.96884233    28.87803383
 H     75  12  11     1.092867553732   110.89097148   268.62076443
 C     32  29  23     1.424110255563   113.81215171   185.32247126
 C     79  32  29     1.201341025688   176.32176841   319.88200650
 C     80  79  32     1.428397371182   176.70396812   285.26713492
 C     81  80  79     1.395047748287   120.68043895   129.91059592
 C     82  81  80     1.398435786870   119.92983132   181.35232042
 C     83  82  81     1.406086704297   120.61621592     0.00000000
 C     84  83  82     1.505284826868   120.83454525   178.04765847
 F     85  84  83     1.362818050952   113.82502490   147.40981972
 F     85  84  83     1.363730083264   112.65100348   267.95882511
 F     85  84  83     1.365947294005   112.93748999    27.24958938
 C     84  83  82     1.401535119075   118.80785849     0.24860923
 C     81  80  79     1.392794633103   119.49579473   311.21198112
 H     82  81  80     1.086583774957   120.13865695     0.80520401
 H     83  82  81     1.088350949832   119.07368574   179.61441347
 H     89  84  83     1.089246666279   121.41272823   178.75840694
 H     90  81  80     1.091795411238   120.02059010   359.68112704
 C     38  36  35     1.424294927324   123.76518427   181.50192749
 C     95  38  36     1.201573892859   179.64257257   202.96901764
 C     96  95  38     1.429014629036   177.37315682   162.30859585
 C     97  96  95     1.395529695134   120.35137173   181.25243643
 C     98  97  96     1.397822678311   119.96304866   179.79845902
 C     99  98  97     1.404687449221   120.59005512     0.47669464
 C    100  99  98     1.507963291994   120.44050114   181.21741363
 F    101 100  99     1.362857567760   112.34208238    87.62111184
 F    101 100  99     1.362078830318   113.61760104   207.82015866
 F    101 100  99     1.364373042830   113.04824499   328.23231060
 C    100  99  98     1.403599501282   118.88936523   359.35066388
 C     97  96  95     1.396363756333   119.68118277     1.16888434
 H     98  97  96     1.087199972406   120.23539479   359.73377684
 H     99  98  97     1.088689772157   119.30346031   180.26593593
 H    105 100  99     1.088978140276   120.51282120   180.33503066
 H    106  97  96     1.090689359992   120.05292931     0.15493558

---------------------------
INTERNAL COORDINATES (A.U.)
---------------------------
 C      0   0   0     0.000000000000     0.00000000     0.00000000
 C      1   0   0     2.936296582855     0.00000000     0.00000000
 C      2   1   0     2.865916202215   114.24233957     0.00000000
 C      3   2   1     2.568013882294   117.68101554   356.37096647
 C      4   3   2     2.663602047385   121.84411474   359.07145376
 N      1   2   3     2.467505143390   121.49233836     5.40335416
 H      4   3   2     2.022979267366   116.40906709   175.95585715
 C      1   2   3     2.731954928841   120.74013774   179.21095860
 C      8   1   2     2.700563994330   120.35573225   228.99609158
 C      9   8   1     2.649389859726   119.18628705   185.14888439
 C     10   9   8     4.556273854067    91.15009262   358.56669151
 C     11  10   9     2.641303483761    30.44277546   179.87867412
 H     10   9   8     2.011379614562   120.14416404   180.30060785
 H     11  10   9     2.010266804175   150.63964199   179.57999042
 C     11  10   9     2.619394602206    90.47961597     1.61825313
 F     15  11  10     2.541233162386   118.34615632   172.00625285
 N      5   4   3     2.666064460727   118.11972380   184.67529672
 I      2   1   3     3.930734959866   118.79936149   201.11909581
 H      2   1   3     2.913473553834    94.08531242    97.18786284
 C     16  15  11    13.138146501667   148.08854141   338.98574522
 C     20  16  15     2.624675941329    45.90008916   206.41581294
 C     21  20  16     2.652119632996   120.95364291    39.37080548
 C     22  21  20     2.715070051812   118.35472235   358.32660759
 C     23  22  21     2.666340574419   119.85193352     2.27560430
 C     24  23  22     2.627903801818   119.94110819   358.13995956
 H     20  16  15     2.017840655151   146.49597587   128.60372777
 H     21  20  16     2.013009731367   119.84304070   219.75749385
 C     22  21  20     2.746825103607   120.84362779   181.75156562
 C     23  22  21     2.643346410093   118.99543729   182.97583885
 H     24  23  22     2.018302824410   119.82940601   180.98265337
 H     25  24  23     2.025071657449   119.76721803   180.57293688
 C     29  23  22     2.660782182850   120.34751791   359.89287851
 C     32  29  23     2.662006771883   121.92454234     4.78770687
 H     29  23  22     2.029890174526   120.10196476   179.02361157
 C     28  22  21     2.771838704660   119.82264452   352.61723033
 C     35  28  22     2.701738790311   121.43339201   117.56068251
 C     35  28  22     2.740154691741   120.33170027   297.24251307
 C     36  35  28     2.658106681663   119.85502963   178.14514540
 C     37  35  28     2.710854293705   120.74425557   179.17568645
 C     37  35  28     2.661264661540   120.89236631   356.78405700
 C     39  37  35     2.646835328609   119.01376100     1.64658171
 C     39  37  35     2.664360341015   119.68404958   180.23502282
 C     40  37  35     2.623289810665   121.24080735   180.46096371
 H     40  37  35     2.015407876566   119.12913485   359.91573683
 H     41  39  37     2.029768246706   119.53853567   178.20661296
 C     42  39  37     2.636850763940   120.12968447   358.11772408
 H     42  39  37     2.019831300831   119.86102469   180.15510935
 H     43  40  37     2.011688924048   119.92551818   180.69328051
 H     46  42  39     2.023406889372   119.62810652   180.34365128
 S     33  32  29     3.331835123099   122.58043053   171.30318939
 O     50  33  32     2.721562577391   107.56628971   128.09342186
 O     50  33  32     2.719892973622   111.35054791   358.73746009
 S     36  35  28     3.323126692069   116.72349011     0.93306580
 O     53  36  35     2.732178324087   107.14166953   313.88119704
 O     53  36  35     2.720376953621   111.28847370   185.94090391
 N     19   2   1     2.704365784177   156.47084306   221.45691967
 C     17   5   4     2.757467051659   122.93332653   177.11883396
 H     57  17   5     2.065807615000   109.77022690   308.63011517
 H     57  17   5     2.075160591126   109.02268180    66.78709215
 C     17   5   4     2.783052774541   124.52477842    10.49552342
 H     60  17   5     2.070605969442   111.20563630    36.64148620
 H     60  17   5     2.073111581748   108.23665167   278.55356597
 C     60  17   5     2.900699878391   106.26293495   158.44914159
 H     63  60  17     2.076391872536   110.29878062   260.04478274
 H     63  60  17     2.076784372058   112.17179643   141.42731958
 C     63  60  17     2.902001737857   105.46694745    19.04122606
 H     66  63  60     2.076804086220   112.19206169   216.57789137
 H     66  63  60     2.077391341442   110.31803165    98.14813561
 Cl     3   2   1     3.269723084512   120.06057032   138.28890066
 O      9   8   1     2.614459982147   117.51132877     4.02788744
 C     70   9   8     2.660070493743   115.82066677   181.68828059
 H     71  70   9     2.062607681477   109.53208697   296.11300518
 H     71  70   9     2.064291868501   110.18891848    58.21363547
 H     71  70   9     2.059947951879   108.43334212   177.07706849
 C     12  11  10     2.790732288801   120.52680256   177.47181131
 H     75  12  11     2.063050370955   110.90574929   148.44310236
 H     75  12  11     2.061529297271   110.96884233    28.87803383
 H     75  12  11     2.065220377202   110.89097148   268.62076443
 C     32  29  23     2.691178367523   113.81215171   185.32247126
 C     79  32  29     2.270205531994   176.32176841   319.88200650
 C     80  79  32     2.699279841947   176.70396812   285.26713492
 C     81  80  79     2.636258188006   120.68043895   129.91059592
 C     82  81  80     2.642660653060   119.92983132   181.35232042
 C     83  82  81     2.657118791669   120.61621592     0.00000000
 C     84  83  82     2.844576076328   120.83454525   178.04765847
 F     85  84  83     2.575352886663   113.82502490   147.40981972
 F     85  84  83     2.577076377959   112.65100348   267.95882511
 F     85  84  83     2.581266299041   112.93748999    27.24958938
 C     84  83  82     2.648517542124   118.80785849     0.24860923
 C     81  80  79     2.632000417360   119.49579473   311.21198112
 H     82  81  80     2.053345756231   120.13865695     0.80520401
 H     83  82  81     2.056685232775   119.07368574   179.61441347
 H     89  84  83     2.058377891554   121.41272823   178.75840694
 H     90  81  80     2.063194321511   120.02059010   359.68112704
 C     38  36  35     2.691527346575   123.76518427   181.50192749
 C     95  38  36     2.270645587173   179.64257257   202.96901764
 C     96  95  38     2.700446290246   177.37315682   162.30859585
 C     97  96  95     2.637168935557   120.35137173   181.25243643
 C     98  97  96     2.641502045792   119.96304866   179.79845902
 C     99  98  97     2.654474582785   120.59005512     0.47669464
 C    100  99  98     2.849637641874   120.44050114   181.21741363
 F    101 100  99     2.575427562608   112.34208238    87.62111184
 F    101 100  99     2.573955962113   113.61760104   207.82015866
 F    101 100  99     2.578291395453   113.04824499   328.23231060
 C    100  99  98     2.652418659132   118.88936523   359.35066388
 C     97  96  95     2.638745082803   119.68118277     1.16888434
 H     98  97  96     2.054510200654   120.23539479   359.73377684
 H     99  98  97     2.057325514178   119.30346031   180.26593593
 H    105 100  99     2.057870450949   120.51282120   180.33503066
 H    106  97  96     2.061104187567   120.05292931     0.15493558

---------------------
BASIS SET INFORMATION
---------------------
There are 8 groups of distinct atoms

 Group   1 Type C   : 7s4p1d contracted to 3s2p1d pattern {511/31/1}
 Group   2 Type N   : 7s4p1d contracted to 3s2p1d pattern {511/31/1}
 Group   3 Type H   : 4s1p contracted to 2s1p pattern {31/1}
 Group   4 Type F   : 7s4p1d contracted to 3s2p1d pattern {511/31/1}
 Group   5 Type I   : 10s7p6d contracted to 4s4p2d pattern {6211/4111/51}
 Group   6 Type S   : 10s7p1d contracted to 4s3p1d pattern {5311/511/1}
 Group   7 Type O   : 7s4p1d contracted to 3s2p1d pattern {511/31/1}
 Group   8 Type Cl  : 10s7p1d contracted to 4s3p1d pattern {5311/511/1}

Atom   0C    basis set group =>   1
Atom   1C    basis set group =>   1
Atom   2C    basis set group =>   1
Atom   3C    basis set group =>   1
Atom   4C    basis set group =>   1
Atom   5N    basis set group =>   2
Atom   6H    basis set group =>   3
Atom   7C    basis set group =>   1
Atom   8C    basis set group =>   1
Atom   9C    basis set group =>   1
Atom  10C    basis set group =>   1
Atom  11C    basis set group =>   1
Atom  12H    basis set group =>   3
Atom  13H    basis set group =>   3
Atom  14C    basis set group =>   1
Atom  15F    basis set group =>   4
Atom  16N    basis set group =>   2
Atom  17I    basis set group =>   5
Atom  18H    basis set group =>   3
Atom  19C    basis set group =>   1
Atom  20C    basis set group =>   1
Atom  21C    basis set group =>   1
Atom  22C    basis set group =>   1
Atom  23C    basis set group =>   1
Atom  24C    basis set group =>   1
Atom  25H    basis set group =>   3
Atom  26H    basis set group =>   3
Atom  27C    basis set group =>   1
Atom  28C    basis set group =>   1
Atom  29H    basis set group =>   3
Atom  30H    basis set group =>   3
Atom  31C    basis set group =>   1
Atom  32C    basis set group =>   1
Atom  33H    basis set group =>   3
Atom  34C    basis set group =>   1
Atom  35C    basis set group =>   1
Atom  36C    basis set group =>   1
Atom  37C    basis set group =>   1
Atom  38C    basis set group =>   1
Atom  39C    basis set group =>   1
Atom  40C    basis set group =>   1
Atom  41C    basis set group =>   1
Atom  42C    basis set group =>   1
Atom  43H    basis set group =>   3
Atom  44H    basis set group =>   3
Atom  45C    basis set group =>   1
Atom  46H    basis set group =>   3
Atom  47H    basis set group =>   3
Atom  48H    basis set group =>   3
Atom  49S    basis set group =>   6
Atom  50O    basis set group =>   7
Atom  51O    basis set group =>   7
Atom  52S    basis set group =>   6
Atom  53O    basis set group =>   7
Atom  54O    basis set group =>   7
Atom  55N    basis set group =>   2
Atom  56C    basis set group =>   1
Atom  57H    basis set group =>   3
Atom  58H    basis set group =>   3
Atom  59C    basis set group =>   1
Atom  60H    basis set group =>   3
Atom  61H    basis set group =>   3
Atom  62C    basis set group =>   1
Atom  63H    basis set group =>   3
Atom  64H    basis set group =>   3
Atom  65C    basis set group =>   1
Atom  66H    basis set group =>   3
Atom  67H    basis set group =>   3
Atom  68Cl   basis set group =>   8
Atom  69O    basis set group =>   7
Atom  70C    basis set group =>   1
Atom  71H    basis set group =>   3
Atom  72H    basis set group =>   3
Atom  73H    basis set group =>   3
Atom  74C    basis set group =>   1
Atom  75H    basis set group =>   3
Atom  76H    basis set group =>   3
Atom  77H    basis set group =>   3
Atom  78C    basis set group =>   1
Atom  79C    basis set group =>   1
Atom  80C    basis set group =>   1
Atom  81C    basis set group =>   1
Atom  82C    basis set group =>   1
Atom  83C    basis set group =>   1
Atom  84C    basis set group =>   1
Atom  85F    basis set group =>   4
Atom  86F    basis set group =>   4
Atom  87F    basis set group =>   4
Atom  88C    basis set group =>   1
Atom  89C    basis set group =>   1
Atom  90H    basis set group =>   3
Atom  91H    basis set group =>   3
Atom  92H    basis set group =>   3
Atom  93H    basis set group =>   3
Atom  94C    basis set group =>   1
Atom  95C    basis set group =>   1
Atom  96C    basis set group =>   1
Atom  97C    basis set group =>   1
Atom  98C    basis set group =>   1
Atom  99C    basis set group =>   1
Atom 100C    basis set group =>   1
Atom 101F    basis set group =>   4
Atom 102F    basis set group =>   4
Atom 103F    basis set group =>   4
Atom 104C    basis set group =>   1
Atom 105C    basis set group =>   1
Atom 106H    basis set group =>   3
Atom 107H    basis set group =>   3
Atom 108H    basis set group =>   3
Atom 109H    basis set group =>   3
-------------------------
ECP PARAMETER INFORMATION
-------------------------

 Group 1, Type I  ECP Def2-ECP (replacing 28 core electrons, lmax=3)

Atom  17I    ECP group =>   1



           ************************************************************
           *        Program running with 8 parallel MPI-processes     *
           *              working on a common directory               *
           ************************************************************
------------------------------------------------------------------------------
                           ORCA GTO INTEGRAL CALCULATION
------------------------------------------------------------------------------
------------------------------------------------------------------------------
                   ___                                                        
                  /   \      - P O W E R E D   B Y -                         
                 /     \                                                     
                 |  |  |   _    _      __       _____    __    __             
                 |  |  |  | |  | |    /  \     |  _  \  |  |  /  |          
                  \  \/   | |  | |   /    \    | | | |  |  | /  /          
                 / \  \   | |__| |  /  /\  \   | |_| |  |  |/  /          
                |  |  |   |  __  | /  /__\  \  |    /   |      \           
                |  |  |   | |  | | |   __   |  |    \   |  |\   \          
                \     /   | |  | | |  |  |  |  | |\  \  |  | \   \       
                 \___/    |_|  |_| |__|  |__|  |_| \__\ |__|  \__/        
                                                                              
                      - O R C A' S   B I G   F R I E N D -                    
                                      &                                       
                       - I N T E G R A L  F E E D E R -                       
                                                                              
 v1 FN, 2020, v2 2021                                                         
------------------------------------------------------------------------------


Reading SHARK input file SaxR_2m_4s_HF_def2-svp.SHARKINP.tmp ... ok
----------------------
SHARK INTEGRAL PACKAGE
----------------------

Number of atoms                             ...    110
Number of basis functions                   ...   1240
Number of shells                            ...    562
Maximum angular momentum                    ...      2
Integral batch strategy                     ... SHARK/LIBINT Hybrid
RI-J (if used) integral strategy            ... SPLIT-RIJ (Revised 2003 algorithm where possible)
Printlevel                                  ...      1
Contraction scheme used                     ... SEGMENTED contraction
Coulomb Range Separation                    ... NOT USED
Exchange Range Separation                   ... NOT USED
Finite Nucleus Model                        ... NOT USED
Auxiliary Coulomb fitting basis             ... NOT available
Auxiliary J/K fitting basis                 ... NOT available
Auxiliary Correlation fitting basis         ... NOT available
Auxiliary 'external' fitting basis          ... NOT available
Integral threshold                          ...     1.000000e-10
Primitive cut-off                           ...     1.000000e-11
Primitive pair pre-selection threshold      ...     1.000000e-11

Calculating pre-screening integrals         ... done (  0.1 sec) Dimension = 562
Organizing shell pair data                  ... done (  0.7 sec)
Shell pair information
Total number of shell pairs                 ...    158203
Shell pairs after pre-screening             ...     60399
Total number of primitive shell pairs       ...    603372
Primitive shell pairs kept                  ...    128002
          la=0 lb=0:  17424 shell pairs
          la=1 lb=0:  22854 shell pairs
          la=1 lb=1:   7642 shell pairs
          la=2 lb=0:   7079 shell pairs
          la=2 lb=1:   4750 shell pairs
          la=2 lb=2:    650 shell pairs

Calculating one electron integrals          ... done (  0.1 sec)
Calculating ECP integrals                   ... done (  0.8 sec)
Calculating Nuclear repulsion               ... done (  0.0 sec) ENN=  14278.749324751830 Eh

SHARK setup successfully completed in   2.2 seconds

Maximum memory used throughout the entire GTOINT-calculation: 96.2 MB


           ************************************************************
           *        Program running with 8 parallel MPI-processes     *
           *              working on a common directory               *
           ************************************************************
-------------------------------------------------------------------------------
                                 ORCA SCF
-------------------------------------------------------------------------------

------------
SCF SETTINGS
------------
Hamiltonian:
 Ab initio Hamiltonian  Method          .... Hartree-Fock(GTOs)


General Settings:
 Integral files         IntName         .... SaxR_2m_4s_HF_def2-svp
 Hartree-Fock type      HFTyp           .... RHF
 Total Charge           Charge          ....    0
 Multiplicity           Mult            ....    1
 Number of Electrons    NEL             ....  564
 Basis Dimension        Dim             .... 1240
 Nuclear Repulsion      ENuc            ....  14278.7493247518 Eh

Convergence Acceleration:
 DIIS                   CNVDIIS         .... on
   Start iteration      DIISMaxIt       ....    12
   Startup error        DIISStart       ....  0.200000
   # of expansion vecs  DIISMaxEq       ....     5
   Bias factor          DIISBfac        ....   1.050
   Max. coefficient     DIISMaxC        ....  10.000
 Trust-Rad. Augm. Hess. CNVTRAH         .... auto
   Auto Start mean grad. ratio tolernc. ....  1.125000
   Auto Start start iteration           ....    20
   Auto Start num. interpolation iter.  ....    10
   Max. Number of Micro iterations      ....    16
   Max. Number of Macro iterations      .... Maxiter - #DIIS iter
   Number of Davidson start vectors     ....     2
   Converg. threshold I  (grad. norm)   ....   5.000e-05
   Converg. threshold II (energy diff.) ....   1.000e-06
   Grad. Scal. Fac. for Micro threshold ....   0.100
   Minimum threshold for Micro iter.    ....   0.010
   NR start threshold (gradient norm)   ....   0.001
   Initial trust radius                 ....   0.400
   Minimum AH scaling param. (alpha)    ....   1.000
   Maximum AH scaling param. (alpha)    .... 1000.000
   Orbital update algorithm             .... Taylor
   White noise on init. David. guess    .... on
   Maximum white noise                  ....   0.010
   Quad. conv. algorithm                .... NR
 SOSCF                  CNVSOSCF        .... on
   Start iteration      SOSCFMaxIt      ....   150
   Startup grad/error   SOSCFStart      ....  0.003300
 Level Shifting         CNVShift        .... on
   Level shift para.    LevelShift      ....    0.2500
   Turn off err/grad.   ShiftErr        ....    0.0010
 Zerner damping         CNVZerner       .... off
 Static damping         CNVDamp         .... on
   Fraction old density DampFac         ....    0.7000
   Max. Damping (<1)    DampMax         ....    0.9800
   Min. Damping (>=0)   DampMin         ....    0.0000
   Turn off err/grad.   DampErr         ....    0.1000
 Fernandez-Rico         CNVRico         .... off

SCF Procedure:
 Maximum # iterations   MaxIter         ....   125
 SCF integral mode      SCFMode         .... Direct
   Integral package                     .... SHARK and LIBINT hybrid scheme
 Reset frequency        DirectResetFreq ....    20
 Integral Threshold     Thresh          ....  1.000e-10 Eh
 Primitive CutOff       TCut            ....  1.000e-11 Eh

Convergence Tolerance:
 Convergence Check Mode ConvCheckMode   .... Total+1el-Energy
 Convergence forced     ConvForced      .... 0
 Energy Change          TolE            ....  1.000e-06 Eh
 1-El. energy change                    ....  1.000e-03 Eh
 Orbital Gradient       TolG            ....  5.000e-05
 Orbital Rotation angle TolX            ....  5.000e-05
 DIIS Error             TolErr          ....  1.000e-06


Diagonalization of the overlap matrix:
Smallest eigenvalue                        ... 1.922e-04
Time for diagonalization                   ...    0.216 sec
Threshold for overlap eigenvalues          ... 1.000e-08
Number of eigenvalues below threshold      ... 0
Time for construction of square roots      ...    0.185 sec
Total time needed                          ...    0.407 sec

Time for model grid setup =    1.735 sec

------------------------------
INITIAL GUESS: MODEL POTENTIAL
------------------------------
Loading Hartree-Fock densities                     ... done
  calling /home/_opt/orca/5.0.3/orca SaxR_2m_4s_HF_def2-svp_atom53.inp > SaxR_2m_4s_HF_def2-svp_atom53.out in order to generate an atomic fitting density for atom 17 (I  with ECP) on-the-fly... 
    atom 17 (I ), assumed electronic state with S=2: 1s2 2s2 2p6 3s2 3p6 4s2 3d10 4p6 5s2 4d10 5p5           ... done
Calculating cut-offs                               ... done
Initializing the effective Hamiltonian             ... done
Setting up the integral package (SHARK)            ... done
Starting the Coulomb interaction                   ... done (   1.7 sec)
Reading the grid                                   ... done
Mapping shells                                     ... done
Starting the XC term evaluation                    ... done (   0.3 sec)
Transforming the Hamiltonian                       ... done (   0.1 sec)
Diagonalizing the Hamiltonian                      ... done (   0.2 sec)
Back transforming the eigenvectors                 ... done (   0.1 sec)
Now organizing SCF variables                       ... done
                      ------------------
                      INITIAL GUESS DONE (   4.7 sec)
                      ------------------
--------------
SCF ITERATIONS
--------------
ITER       Energy         Delta-E        Max-DP      RMS-DP      [F,P]     Damp
               ***  Starting incremental Fock matrix formation  ***
  0  -4883.0553904622   0.000000000000 0.13626051  0.00129559  0.3860283 0.7000
  1  -4883.8052331560  -0.749842693767 0.11804288  0.00099487  0.2678999 0.7000
                               ***Turning on DIIS***
  2  -4884.2623313667  -0.457098210660 0.08965378  0.00069695  0.1848834 0.7000
  3  -4889.5611712215  -5.298839854804 0.07008264  0.00050214  0.1278102 0.7000
  4  -4889.8743519421  -0.313180720652 0.17925553  0.00124365  0.0893144 0.0000
  5  -4885.5726499826   4.301701959528 0.01363374  0.00010482  0.0055787 0.0000
                      *** Initiating the SOSCF procedure ***
                           *** Shutting down DIIS ***
                      *** Re-Reading the Fockian *** 
                      *** Removing any level shift *** 
ITER      Energy       Delta-E        Grad      Rot      Max-DP    RMS-DP
  6  -4885.31063310   0.2620168829  0.001837  0.001837  0.005455  0.000047
               *** Restarting incremental Fock matrix formation ***
  7  -4885.25250613   0.0581269744  0.001628  0.004973  0.002908  0.000029
  8  -4885.25272441  -0.0002182872  0.000565  0.005303  0.002907  0.000035
  9  -4885.25281615  -0.0000917336  0.000288  0.000690  0.000594  0.000009
 10  -4885.25282992  -0.0000137745  0.000111  0.000496  0.000345  0.000004
 11  -4885.25283220  -0.0000022794  0.000048  0.000496  0.000251  0.000003
 12  -4885.25283280  -0.0000006016  0.000025  0.000118  0.000109  0.000001
                  ***Gradient check signals convergence***
              ***Rediagonalizing the Fockian in SOSCF/NRSCF***

               *****************************************************
               *                     SUCCESS                       *
               *           SCF CONVERGED AFTER  13 CYCLES          *
               *****************************************************


----------------
TOTAL SCF ENERGY
----------------

Total Energy       :        -4885.25283288 Eh         -132934.48784 eV

Components:
Nuclear Repulsion  :        14278.74932475 Eh          388544.52235 eV
Electronic Energy  :       -19164.00215763 Eh         -521479.01019 eV
One Electron Energy:       -35298.70317059 Eh         -960526.54550 eV
Two Electron Energy:        16134.70101296 Eh          439047.53531 eV

Virial components:
Potential Energy   :        -9573.66741137 Eh         -260512.73447 eV
Kinetic Energy     :         4688.41457849 Eh          127578.24663 eV
Virial Ratio       :            2.04198397


---------------
SCF CONVERGENCE
---------------

  Last Energy change         ...   -7.4655e-08  Tolerance :   1.0000e-06
  Last MAX-Density change    ...    2.8306e-05  Tolerance :   1.0000e-05
  Last RMS-Density change    ...    4.1772e-07  Tolerance :   1.0000e-06
  Last Orbital Gradient      ...    9.1267e-06  Tolerance :   5.0000e-05
  Last Orbital Rotation      ...    2.3840e-05  Tolerance :   5.0000e-05

             **** THE GBW FILE WAS UPDATED (SaxR_2m_4s_HF_def2-svp.gbw) ****
             **** DENSITY SaxR_2m_4s_HF_def2-svp.scfp WAS UPDATED ****
             **** ENERGY FILE WAS UPDATED (SaxR_2m_4s_HF_def2-svp.en.tmp) ****
             **** THE GBW FILE WAS UPDATED (SaxR_2m_4s_HF_def2-svp.gbw) ****
             **** DENSITY SaxR_2m_4s_HF_def2-svp.scfp WAS UPDATED ****
----------------
ORBITAL ENERGIES
----------------

  NO   OCC          E(Eh)            E(eV) 
   0   2.0000    -104.809048     -2851.9992 
   1   2.0000     -92.178236     -2508.2973 
   2   2.0000     -92.174637     -2508.1994 
   3   2.0000     -26.332920      -716.5552 
   4   2.0000     -26.329693      -716.4674 
   5   2.0000     -26.329462      -716.4611 
   6   2.0000     -26.321262      -716.2380 
   7   2.0000     -26.320284      -716.2113 
   8   2.0000     -26.318812      -716.1713 
   9   2.0000     -26.314067      -716.0422 
  10   2.0000     -20.600166      -560.5590 
  11   2.0000     -20.532324      -558.7129 
  12   2.0000     -20.517091      -558.2984 
  13   2.0000     -20.512510      -558.1738 
  14   2.0000     -20.511472      -558.1455 
  15   2.0000     -15.612518      -424.8382 
  16   2.0000     -15.579068      -423.9280 
  17   2.0000     -15.566850      -423.5955 
  18   2.0000     -11.522380      -313.5399 
  19   2.0000     -11.509577      -313.1915 
  20   2.0000     -11.379218      -309.6443 
  21   2.0000     -11.361822      -309.1709 
  22   2.0000     -11.359472      -309.1069 
  23   2.0000     -11.358025      -309.0676 
  24   2.0000     -11.344931      -308.7113 
  25   2.0000     -11.308182      -307.7113 
  26   2.0000     -11.305710      -307.6440 
  27   2.0000     -11.293935      -307.3236 
  28   2.0000     -11.291694      -307.2626 
  29   2.0000     -11.291436      -307.2556 
  30   2.0000     -11.287595      -307.1511 
  31   2.0000     -11.285738      -307.1005 
  32   2.0000     -11.283428      -307.0377 
  33   2.0000     -11.280731      -306.9643 
  34   2.0000     -11.280709      -306.9637 
  35   2.0000     -11.280474      -306.9573 
  36   2.0000     -11.280426      -306.9560 
  37   2.0000     -11.278858      -306.9133 
  38   2.0000     -11.273272      -306.7613 
  39   2.0000     -11.271935      -306.7250 
  40   2.0000     -11.271257      -306.7065 
  41   2.0000     -11.269402      -306.6560 
  42   2.0000     -11.268152      -306.6220 
  43   2.0000     -11.267005      -306.5908 
  44   2.0000     -11.266832      -306.5861 
  45   2.0000     -11.264567      -306.5245 
  46   2.0000     -11.264208      -306.5147 
  47   2.0000     -11.263837      -306.5046 
  48   2.0000     -11.263339      -306.4910 
  49   2.0000     -11.262726      -306.4744 
  50   2.0000     -11.262379      -306.4649 
  51   2.0000     -11.261292      -306.4353 
  52   2.0000     -11.260149      -306.4042 
  53   2.0000     -11.256809      -306.3134 
  54   2.0000     -11.254807      -306.2589 
  55   2.0000     -11.254656      -306.2548 
  56   2.0000     -11.253748      -306.2301 
  57   2.0000     -11.253451      -306.2220 
  58   2.0000     -11.251891      -306.1795 
  59   2.0000     -11.251659      -306.1732 
  60   2.0000     -11.251112      -306.1583 
  61   2.0000     -11.250028      -306.1288 
  62   2.0000     -11.249807      -306.1228 
  63   2.0000     -11.249274      -306.1083 
  64   2.0000     -11.248971      -306.1001 
  65   2.0000     -11.248624      -306.0906 
  66   2.0000     -11.248076      -306.0757 
  67   2.0000     -11.247885      -306.0705 
  68   2.0000     -11.245046      -305.9933 
  69   2.0000     -11.241971      -305.9096 
  70   2.0000     -11.235619      -305.7367 
  71   2.0000     -11.235265      -305.7271 
  72   2.0000     -11.230559      -305.5990 
  73   2.0000     -10.572441      -287.6908 
  74   2.0000      -9.178009      -249.7463 
  75   2.0000      -9.173950      -249.6359 
  76   2.0000      -8.047338      -218.9792 
  77   2.0000      -8.043528      -218.8755 
  78   2.0000      -8.043352      -218.8707 
  79   2.0000      -7.737612      -210.5511 
  80   2.0000      -6.869449      -186.9272 
  81   2.0000      -6.869117      -186.9182 
  82   2.0000      -6.868201      -186.8932 
  83   2.0000      -6.865288      -186.8140 
  84   2.0000      -6.865135      -186.8098 
  85   2.0000      -6.864177      -186.7837 
  86   2.0000      -5.595688      -152.2664 
  87   2.0000      -5.581341      -151.8760 
  88   2.0000      -5.580626      -151.8565 
  89   2.0000      -2.291628       -62.3584 
  90   2.0000      -2.285328       -62.1869 
  91   2.0000      -2.284723       -62.1705 
  92   2.0000      -2.269812       -61.7647 
  93   2.0000      -2.269788       -61.7641 
  94   2.0000      -1.698511       -46.2188 
  95   2.0000      -1.685976       -45.8777 
  96   2.0000      -1.621515       -44.1237 
  97   2.0000      -1.602466       -43.6053 
  98   2.0000      -1.599950       -43.5369 
  99   2.0000      -1.590401       -43.2770 
 100   2.0000      -1.586879       -43.1812 
 101   2.0000      -1.464307       -39.8458 
 102   2.0000      -1.441282       -39.2193 
 103   2.0000      -1.413396       -38.4605 
 104   2.0000      -1.318963       -35.8908 
 105   2.0000      -1.314845       -35.7787 
 106   2.0000      -1.308105       -35.5954 
 107   2.0000      -1.251774       -34.0625 
 108   2.0000      -1.217184       -33.1213 
 109   2.0000      -1.199125       -32.6299 
 110   2.0000      -1.186010       -32.2730 
 111   2.0000      -1.182749       -32.1842 
 112   2.0000      -1.179990       -32.1092 
 113   2.0000      -1.171234       -31.8709 
 114   2.0000      -1.169156       -31.8143 
 115   2.0000      -1.134407       -30.8688 
 116   2.0000      -1.129957       -30.7477 
 117   2.0000      -1.106341       -30.1051 
 118   2.0000      -1.103066       -30.0159 
 119   2.0000      -1.087450       -29.5910 
 120   2.0000      -1.077679       -29.3251 
 121   2.0000      -1.071442       -29.1554 
 122   2.0000      -1.053498       -28.6671 
 123   2.0000      -1.049173       -28.5494 
 124   2.0000      -1.043314       -28.3900 
 125   2.0000      -1.039780       -28.2939 
 126   2.0000      -1.030865       -28.0513 
 127   2.0000      -1.030002       -28.0278 
 128   2.0000      -1.022586       -27.8260 
 129   2.0000      -1.020238       -27.7621 
 130   2.0000      -1.019149       -27.7325 
 131   2.0000      -1.014868       -27.6160 
 132   2.0000      -1.007168       -27.4064 
 133   2.0000      -0.993218       -27.0268 
 134   2.0000      -0.981061       -26.6960 
 135   2.0000      -0.972468       -26.4622 
 136   2.0000      -0.956042       -26.0152 
 137   2.0000      -0.953361       -25.9423 
 138   2.0000      -0.943657       -25.6782 
 139   2.0000      -0.926160       -25.2021 
 140   2.0000      -0.924741       -25.1635 
 141   2.0000      -0.911527       -24.8039 
 142   2.0000      -0.886960       -24.1354 
 143   2.0000      -0.880381       -23.9564 
 144   2.0000      -0.873195       -23.7609 
 145   2.0000      -0.865232       -23.5441 
 146   2.0000      -0.858961       -23.3735 
 147   2.0000      -0.857264       -23.3273 
 148   2.0000      -0.856933       -23.3183 
 149   2.0000      -0.848447       -23.0874 
 150   2.0000      -0.846399       -23.0317 
 151   2.0000      -0.844873       -22.9902 
 152   2.0000      -0.844572       -22.9820 
 153   2.0000      -0.829921       -22.5833 
 154   2.0000      -0.816244       -22.2111 
 155   2.0000      -0.813839       -22.1457 
 156   2.0000      -0.808790       -22.0083 
 157   2.0000      -0.803044       -21.8519 
 158   2.0000      -0.802333       -21.8326 
 159   2.0000      -0.798992       -21.7417 
 160   2.0000      -0.797030       -21.6883 
 161   2.0000      -0.794565       -21.6212 
 162   2.0000      -0.791650       -21.5419 
 163   2.0000      -0.780870       -21.2486 
 164   2.0000      -0.765488       -20.8300 
 165   2.0000      -0.762380       -20.7454 
 166   2.0000      -0.750678       -20.4270 
 167   2.0000      -0.747076       -20.3290 
 168   2.0000      -0.744130       -20.2488 
 169   2.0000      -0.735803       -20.0222 
 170   2.0000      -0.731338       -19.9007 
 171   2.0000      -0.725083       -19.7305 
 172   2.0000      -0.722489       -19.6599 
 173   2.0000      -0.713332       -19.4108 
 174   2.0000      -0.711635       -19.3646 
 175   2.0000      -0.709668       -19.3110 
 176   2.0000      -0.709335       -19.3020 
 177   2.0000      -0.707469       -19.2512 
 178   2.0000      -0.698733       -19.0135 
 179   2.0000      -0.697463       -18.9789 
 180   2.0000      -0.696992       -18.9661 
 181   2.0000      -0.695362       -18.9218 
 182   2.0000      -0.694246       -18.8914 
 183   2.0000      -0.688631       -18.7386 
 184   2.0000      -0.681149       -18.5350 
 185   2.0000      -0.678207       -18.4549 
 186   2.0000      -0.676030       -18.3957 
 187   2.0000      -0.666535       -18.1373 
 188   2.0000      -0.662626       -18.0310 
 189   2.0000      -0.660182       -17.9645 
 190   2.0000      -0.659500       -17.9459 
 191   2.0000      -0.655484       -17.8366 
 192   2.0000      -0.655002       -17.8235 
 193   2.0000      -0.652450       -17.7541 
 194   2.0000      -0.650677       -17.7058 
 195   2.0000      -0.649498       -17.6737 
 196   2.0000      -0.647485       -17.6190 
 197   2.0000      -0.646957       -17.6046 
 198   2.0000      -0.646666       -17.5967 
 199   2.0000      -0.642332       -17.4788 
 200   2.0000      -0.639622       -17.4050 
 201   2.0000      -0.636632       -17.3236 
 202   2.0000      -0.633856       -17.2481 
 203   2.0000      -0.632147       -17.2016 
 204   2.0000      -0.629860       -17.1394 
 205   2.0000      -0.621845       -16.9213 
 206   2.0000      -0.619241       -16.8504 
 207   2.0000      -0.616595       -16.7784 
 208   2.0000      -0.613342       -16.6899 
 209   2.0000      -0.610105       -16.6018 
 210   2.0000      -0.609859       -16.5951 
 211   2.0000      -0.608893       -16.5688 
 212   2.0000      -0.607625       -16.5343 
 213   2.0000      -0.606581       -16.5059 
 214   2.0000      -0.606221       -16.4961 
 215   2.0000      -0.602513       -16.3952 
 216   2.0000      -0.601727       -16.3738 
 217   2.0000      -0.600741       -16.3470 
 218   2.0000      -0.598235       -16.2788 
 219   2.0000      -0.592806       -16.1311 
 220   2.0000      -0.583791       -15.8858 
 221   2.0000      -0.580422       -15.7941 
 222   2.0000      -0.575857       -15.6699 
 223   2.0000      -0.572389       -15.5755 
 224   2.0000      -0.568977       -15.4827 
 225   2.0000      -0.563474       -15.3329 
 226   2.0000      -0.562406       -15.3038 
 227   2.0000      -0.551812       -15.0156 
 228   2.0000      -0.546093       -14.8599 
 229   2.0000      -0.544371       -14.8131 
 230   2.0000      -0.541973       -14.7478 
 231   2.0000      -0.541589       -14.7374 
 232   2.0000      -0.536690       -14.6041 
 233   2.0000      -0.533787       -14.5251 
 234   2.0000      -0.532263       -14.4836 
 235   2.0000      -0.530585       -14.4380 
 236   2.0000      -0.527784       -14.3617 
 237   2.0000      -0.527043       -14.3416 
 238   2.0000      -0.525548       -14.3009 
 239   2.0000      -0.523902       -14.2561 
 240   2.0000      -0.521857       -14.2004 
 241   2.0000      -0.516811       -14.0632 
 242   2.0000      -0.515711       -14.0332 
 243   2.0000      -0.515249       -14.0206 
 244   2.0000      -0.512670       -13.9505 
 245   2.0000      -0.506711       -13.7883 
 246   2.0000      -0.505082       -13.7440 
 247   2.0000      -0.501366       -13.6429 
 248   2.0000      -0.492769       -13.4089 
 249   2.0000      -0.490989       -13.3605 
 250   2.0000      -0.487077       -13.2540 
 251   2.0000      -0.486484       -13.2379 
 252   2.0000      -0.485283       -13.2052 
 253   2.0000      -0.479414       -13.0455 
 254   2.0000      -0.473206       -12.8766 
 255   2.0000      -0.467207       -12.7133 
 256   2.0000      -0.458734       -12.4828 
 257   2.0000      -0.457022       -12.4362 
 258   2.0000      -0.445381       -12.1194 
 259   2.0000      -0.437705       -11.9106 
 260   2.0000      -0.430154       -11.7051 
 261   2.0000      -0.428310       -11.6549 
 262   2.0000      -0.425273       -11.5723 
 263   2.0000      -0.418565       -11.3897 
 264   2.0000      -0.400051       -10.8859 
 265   2.0000      -0.396160       -10.7801 
 266   2.0000      -0.392504       -10.6806 
 267   2.0000      -0.387873       -10.5546 
 268   2.0000      -0.381173       -10.3722 
 269   2.0000      -0.374170       -10.1817 
 270   2.0000      -0.367699       -10.0056 
 271   2.0000      -0.362142        -9.8544 
 272   2.0000      -0.359780        -9.7901 
 273   2.0000      -0.358226        -9.7478 
 274   2.0000      -0.350183        -9.5290 
 275   2.0000      -0.345843        -9.4109 
 276   2.0000      -0.337165        -9.1747 
 277   2.0000      -0.327979        -8.9248 
 278   2.0000      -0.320129        -8.7112 
 279   2.0000      -0.309692        -8.4272 
 280   2.0000      -0.288172        -7.8416 
 281   2.0000      -0.275935        -7.5086 
 282   0.0000       0.019520         0.5312 
 283   0.0000       0.037199         1.0122 
 284   0.0000       0.045888         1.2487 
 285   0.0000       0.058447         1.5904 
 286   0.0000       0.068263         1.8575 
 287   0.0000       0.068687         1.8691 
 288   0.0000       0.103070         2.8047 
 289   0.0000       0.107964         2.9379 
 290   0.0000       0.113315         3.0835 
 291   0.0000       0.114638         3.1195 
 292   0.0000       0.120547         3.2802 
 293   0.0000       0.126078         3.4308 
 294   0.0000       0.137458         3.7404 
 295   0.0000       0.145054         3.9471 
 296   0.0000       0.148545         4.0421 
 297   0.0000       0.162228         4.4145 
 298   0.0000       0.164525         4.4769 
 299   0.0000       0.172626         4.6974 
 300   0.0000       0.180093         4.9006 
 301   0.0000       0.184657         5.0248 
 302   0.0000       0.187324         5.0974 
 303   0.0000       0.190493         5.1836 
 304   0.0000       0.193858         5.2751 
 305   0.0000       0.194863         5.3025 
 306   0.0000       0.202898         5.5211 
 307   0.0000       0.205327         5.5872 
 308   0.0000       0.206277         5.6131 
 309   0.0000       0.208803         5.6818 
 310   0.0000       0.213893         5.8203 
 311   0.0000       0.215236         5.8569 
 312   0.0000       0.218210         5.9378 
 313   0.0000       0.219663         5.9773 
 314   0.0000       0.222265         6.0481 
 315   0.0000       0.226192         6.1550 
 316   0.0000       0.228040         6.2053 
 317   0.0000       0.229758         6.2520 
 318   0.0000       0.232765         6.3338 
 319   0.0000       0.234608         6.3840 
 320   0.0000       0.239239         6.5100 
 321   0.0000       0.241037         6.5589 
 322   0.0000       0.244724         6.6593 
 323   0.0000       0.249328         6.7846 
 324   0.0000       0.251969         6.8564 
 325   0.0000       0.253356         6.8942 
 326   0.0000       0.256515         6.9801 
 327   0.0000       0.259214         7.0536 
 328   0.0000       0.261665         7.1203 
 329   0.0000       0.264031         7.1846 
 330   0.0000       0.265735         7.2310 
 331   0.0000       0.267862         7.2889 
 332   0.0000       0.271891         7.3985 
 333   0.0000       0.276027         7.5111 
 334   0.0000       0.278196         7.5701 
 335   0.0000       0.279938         7.6175 
 336   0.0000       0.282586         7.6896 
 337   0.0000       0.286129         7.7860 
 338   0.0000       0.290272         7.8987 
 339   0.0000       0.292089         7.9482 
 340   0.0000       0.292719         7.9653 
 341   0.0000       0.296913         8.0794 
 342   0.0000       0.299977         8.1628 
 343   0.0000       0.304200         8.2777 
 344   0.0000       0.311391         8.4734 
 345   0.0000       0.312313         8.4985 
 346   0.0000       0.318683         8.6718 
 347   0.0000       0.320698         8.7266 
 348   0.0000       0.326880         8.8949 
 349   0.0000       0.329467         8.9653 
 350   0.0000       0.333538         9.0760 
 351   0.0000       0.336830         9.1656 
 352   0.0000       0.339841         9.2475 
 353   0.0000       0.342253         9.3132 
 354   0.0000       0.348723         9.4892 
 355   0.0000       0.352158         9.5827 
 356   0.0000       0.354271         9.6402 
 357   0.0000       0.355442         9.6721 
 358   0.0000       0.362243         9.8571 
 359   0.0000       0.364403         9.9159 
 360   0.0000       0.370300        10.0764 
 361   0.0000       0.372018        10.1231 
 362   0.0000       0.379668        10.3313 
 363   0.0000       0.382675        10.4131 
 364   0.0000       0.388848        10.5811 
 365   0.0000       0.394269        10.7286 
 366   0.0000       0.395161        10.7529 
 367   0.0000       0.398353        10.8397 
 368   0.0000       0.403387        10.9767 
 369   0.0000       0.406922        11.0729 
 370   0.0000       0.409225        11.1356 
 371   0.0000       0.413043        11.2395 
 372   0.0000       0.416605        11.3364 
 373   0.0000       0.416782        11.3412 
 374   0.0000       0.420993        11.4558 
 375   0.0000       0.422930        11.5085 
 376   0.0000       0.426536        11.6066 
 377   0.0000       0.429867        11.6973 
 378   0.0000       0.432204        11.7609 
 379   0.0000       0.436978        11.8908 
 380   0.0000       0.439647        11.9634 
 381   0.0000       0.440293        11.9810 
 382   0.0000       0.440643        11.9905 
 383   0.0000       0.444073        12.0838 
 384   0.0000       0.445415        12.1204 
 385   0.0000       0.448480        12.2038 
 386   0.0000       0.450369        12.2552 
 387   0.0000       0.452436        12.3114 
 388   0.0000       0.453900        12.3512 
 389   0.0000       0.455869        12.4048 
 390   0.0000       0.457324        12.4444 
 391   0.0000       0.460615        12.5340 
[...]
  831. RY ( 3) S 53             0.04611     1.12413
  832. RY ( 4) S 53             0.03426     1.05072
  833. RY ( 5) S 53             0.01128     1.13772
  834. RY ( 6) S 53             0.00948     1.20041
  835. RY ( 7) S 53             0.00676     0.88832
  836. RY ( 8) S 53             0.00245     1.21704
  837. RY ( 9) S 53             0.00122     1.30093
  838. RY ( 1) O 54             0.00198     1.65742
  839. RY ( 2) O 54             0.00099     1.53240
  840. RY ( 3) O 54             0.00057     1.69042
  841. RY ( 4) O 54             0.00016     1.40334
  842. RY ( 5) O 54             0.00005     3.12851
  843. RY ( 6) O 54             0.00002     3.10227
  844. RY ( 7) O 54             0.00001     3.08044
  845. RY ( 8) O 54             0.00001     3.22835
  846. RY ( 9) O 54             0.00000     3.56737
  847. RY ( 1) O 55             0.00170     1.64030
  848. RY ( 2) O 55             0.00086     1.63907
  849. RY ( 3) O 55             0.00076     1.62414
  850. RY ( 4) O 55             0.00023     1.45695
  851. RY ( 5) O 55             0.00005     3.18784
  852. RY ( 6) O 55             0.00002     3.10444
  853. RY ( 7) O 55             0.00002     3.10673
  854. RY ( 8) O 55             0.00001     3.15086
  855. RY ( 9) O 55             0.00000     3.58221
  856. RY ( 1) N 56             0.00527     1.49361
  857. RY ( 2) N 56             0.00296     1.34703
  858. RY ( 3) N 56             0.00170     1.63383
  859. RY ( 4) N 56             0.00084     1.36557
  860. RY ( 5) N 56             0.00033     2.79228
  861. RY ( 6) N 56             0.00026     2.69698
  862. RY ( 7) N 56             0.00020     3.00738
  863. RY ( 8) N 56             0.00014     2.67057
  864. RY ( 9) N 56             0.00006     2.74272
  993. RY ( 1) C 79             0.00765     1.05327
  994. RY ( 2) C 79             0.00306     0.89550
  995. RY ( 3) C 79             0.00215     1.35350
  996. RY ( 4) C 79             0.00042     1.28598
  997. RY ( 5) C 79             0.00038     1.97645
  998. RY ( 6) C 79             0.00009     2.84376
  999. RY ( 7) C 79             0.00002     2.68147
 1000. RY ( 8) C 79             0.00001     2.15318
 1001. RY ( 9) C 79             0.00001     2.33065
 1002. RY ( 1) C 80             0.00850     1.00754
 1003. RY ( 2) C 80             0.00277     0.82425
 1004. RY ( 3) C 80             0.00225     1.22822
 1005. RY ( 4) C 80             0.00042     1.25835
 1006. RY ( 5) C 80             0.00030     2.09798
 1007. RY ( 6) C 80             0.00003     3.12057
 1008. RY ( 7) C 80             0.00002     2.66722
 1009. RY ( 8) C 80             0.00001     2.06544
 1010. RY ( 9) C 80             0.00001     2.13347
 1011. RY ( 1) C 81             0.00679     1.43788
 1012. RY ( 2) C 81             0.00209     1.46243
 1013. RY ( 3) C 81             0.00200     1.07630
 1014. RY ( 4) C 81             0.00099     2.20531
 1015. RY ( 5) C 81             0.00058     0.91531
 1016. RY ( 6) C 81             0.00046     2.39922
 1017. RY ( 7) C 81             0.00034     2.01288
 1018. RY ( 8) C 81             0.00006     2.60917
 1019. RY ( 9) C 81             0.00000     2.51571
 1020. RY ( 1) C 82             0.00628     1.33278
 1021. RY ( 2) C 82             0.00307     0.88412
 1022. RY ( 3) C 82             0.00124     0.86082
 1023. RY ( 4) C 82             0.00079     2.08748
 1024. RY ( 5) C 82             0.00060     0.79118
 1025. RY ( 6) C 82             0.00012     2.70926
 1026. RY ( 7) C 82             0.00002     2.72706
 1027. RY ( 8) C 82             0.00001     2.18897
 1028. RY ( 9) C 82             0.00000     2.51462
 1029. RY ( 1) C 83             0.00712     1.28339
 1030. RY ( 2) C 83             0.00352     0.92756
 1031. RY ( 3) C 83             0.00136     1.36422
 1032. RY ( 4) C 83             0.00083     1.62652
 1033. RY ( 5) C 83             0.00051     0.75363
 1034. RY ( 6) C 83             0.00011     2.67045
 1035. RY ( 7) C 83             0.00003     2.73726
 1036. RY ( 8) C 83             0.00001     2.49922
 1037. RY ( 9) C 83             0.00000     2.18333
 1038. RY ( 1) C 84             0.00660     1.40451
 1039. RY ( 2) C 84             0.00300     1.13631
 1040. RY ( 3) C 84             0.00259     0.86274
 1041. RY ( 4) C 84             0.00147     0.68133
 1042. RY ( 5) C 84             0.00108     2.16998
 1043. RY ( 6) C 84             0.00026     2.71049
 1044. RY ( 7) C 84             0.00020     2.18461
 1045. RY ( 8) C 84             0.00014     2.50783
 1046. RY ( 9) C 84             0.00002     2.47383
 1047. RY ( 1) C 85             0.01880     0.93268
 1048. RY ( 2) C 85             0.01558     1.05905
 1049. RY ( 3) C 85             0.01209     0.92514
 1050. RY ( 4) C 85             0.00364     2.13005
 1051. RY ( 5) C 85             0.00339     1.50192
 1052. RY ( 6) C 85             0.00301     1.97765
 1053. RY ( 7) C 85             0.00273     2.15305
 1054. RY ( 8) C 85             0.00203     2.28683
 1055. RY ( 9) C 85             0.00049     1.45334
 1056. RY ( 1) F 86             0.00088     1.84103
 1057. RY ( 2) F 86             0.00024     2.07770
 1058. RY ( 3) F 86             0.00017     1.71679
 1059. RY ( 4) F 86             0.00003     1.93646
 1060. RY ( 5) F 86             0.00002     3.48628
 1061. RY ( 6) F 86             0.00001     3.41447
 1062. RY ( 7) F 86             0.00001     3.43826
 1063. RY ( 8) F 86             0.00000     3.60924
 1064. RY ( 9) F 86             0.00000     3.43653
 1065. RY ( 1) F 87             0.00106     1.92314
 1066. RY ( 2) F 87             0.00023     2.04779
 1067. RY ( 3) F 87             0.00016     1.74075
 1068. RY ( 4) F 87             0.00002     2.10344
 1069. RY ( 5) F 87             0.00002     3.50667
 1070. RY ( 6) F 87             0.00001     3.40735
 1071. RY ( 7) F 87             0.00000     3.40034
 1072. RY ( 8) F 87             0.00000     3.43918
 1073. RY ( 9) F 87             0.00000     3.47542
 1074. RY ( 1) F 88             0.00086     1.85149
 1075. RY ( 2) F 88             0.00024     2.07140
 1076. RY ( 3) F 88             0.00017     1.70557
 1077. RY ( 4) F 88             0.00003     1.93109
 1078. RY ( 5) F 88             0.00002     3.49288
 1079. RY ( 6) F 88             0.00001     3.44162
 1080. RY ( 7) F 88             0.00001     3.43733
 1081. RY ( 8) F 88             0.00000     3.62526
 1082. RY ( 9) F 88             0.00000     3.42430
 1083. RY ( 1) C 89             0.00719     1.29088
 1084. RY ( 2) C 89             0.00351     0.97389
 1085. RY ( 3) C 89             0.00179     1.29966
 1086. RY ( 4) C 89             0.00071     1.68702
 1087. RY ( 5) C 89             0.00051     0.80525
 1088. RY ( 6) C 89             0.00012     2.68745
 1089. RY ( 7) C 89             0.00004     2.73829
 1090. RY ( 8) C 89             0.00001     2.27133
 1091. RY ( 9) C 89             0.00001     2.44552
 1092. RY ( 1) C 90             0.00673     1.41933
 1093. RY ( 2) C 90             0.00339     0.94788
 1094. RY ( 3) C 90             0.00183     0.91504
 1095. RY ( 4) C 90             0.00076     1.47680
 1096. RY ( 5) C 90             0.00070     1.48679
 1097. RY ( 6) C 90             0.00012     2.72369
 1098. RY ( 7) C 90             0.00003     2.51179
 1099. RY ( 8) C 90             0.00002     2.46403
 1100. RY ( 9) C 90             0.00001     2.51318
 1101. RY ( 1) H 91             0.00091     0.45249
 1102. RY ( 2) H 91             0.00008     1.92294
 1103. RY ( 3) H 91             0.00002     2.56513
 1104. RY ( 4) H 91             0.00001     2.31459
 1105. RY ( 1) H 92             0.00140     0.44277
 1106. RY ( 2) H 92             0.00009     1.92169
 1107. RY ( 3) H 92             0.00004     2.31916
 1108. RY ( 4) H 92             0.00002     2.55771
 1109. RY ( 1) H 93             0.00214     0.53706
 1110. RY ( 2) H 93             0.00009     1.92122
 1111. RY ( 3) H 93             0.00004     2.48386
 1112. RY ( 4) H 93             0.00002     2.47016
 1113. RY ( 1) H 94             0.00380     0.75730
 1114. RY ( 2) H 94             0.00010     2.68770
 1115. RY ( 3) H 94             0.00007     2.08154
 1116. RY ( 4) H 94             0.00002     2.26402
 1117. RY ( 1) C 95             0.00768     1.05846
 1118. RY ( 2) C 95             0.00292     0.87718
 1119. RY ( 3) C 95             0.00196     1.43057
 1120. RY ( 4) C 95             0.00041     1.27930
 1121. RY ( 5) C 95             0.00028     1.88748
 1122. RY ( 6) C 95             0.00008     2.86175
 1123. RY ( 7) C 95             0.00002     2.80180
 1124. RY ( 8) C 95             0.00001     2.05409
 1125. RY ( 9) C 95             0.00001     2.30554
 1126. RY ( 1) C 96             0.00847     1.01294
 1127. RY ( 2) C 96             0.00275     0.80838
 1128. RY ( 3) C 96             0.00214     1.27443
 1129. RY ( 4) C 96             0.00038     1.24461
 1130. RY ( 5) C 96             0.00028     2.02801
 1131. RY ( 6) C 96             0.00003     3.08955
 1132. RY ( 7) C 96             0.00002     2.64955
 1133. RY ( 8) C 96             0.00001     2.08622
 1134. RY ( 9) C 96             0.00001     2.18851
 1135. RY ( 1) C 97             0.00674     1.43013
 1136. RY ( 2) C 97             0.00214     1.44990
 1137. RY ( 3) C 97             0.00200     1.07943
 1138. RY ( 4) C 97             0.00102     2.20751
 1139. RY ( 5) C 97             0.00059     0.90224
 1140. RY ( 6) C 97             0.00045     2.42810
 1141. RY ( 7) C 97             0.00033     2.01315
 1142. RY ( 8) C 97             0.00006     2.61482
 1143. RY ( 9) C 97             0.00000     2.51807
 1144. RY ( 1) C 98             0.00627     1.34010
 1145. RY ( 2) C 98             0.00307     0.89340
 1146. RY ( 3) C 98             0.00124     0.88149
 1147. RY ( 4) C 98             0.00079     2.07899
 1148. RY ( 5) C 98             0.00060     0.80404
 1149. RY ( 6) C 98             0.00012     2.71736
 1150. RY ( 7) C 98             0.00002     2.73633
 1151. RY ( 8) C 98             0.00001     2.18943
 1152. RY ( 9) C 98             0.00000     2.53191
 1153. RY ( 1) C 99             0.00715     1.29524
 1154. RY ( 2) C 99             0.00354     0.93514
 1155. RY ( 3) C 99             0.00133     1.38187
 1156. RY ( 4) C 99             0.00083     1.62885
 1157. RY ( 5) C 99             0.00051     0.76061
 1158. RY ( 6) C 99             0.00011     2.68434
 1159. RY ( 7) C 99             0.00003     2.74304
 1160. RY ( 8) C 99             0.00001     2.51467
 1161. RY ( 9) C 99             0.00000     2.19001
 1162. RY ( 1) C100             0.00658     1.41009
 1163. RY ( 2) C100             0.00300     1.13931
 1164. RY ( 3) C100             0.00251     0.86777
 1165. RY ( 4) C100             0.00147     0.68849
 1166. RY ( 5) C100             0.00107     2.18763
 1167. RY ( 6) C100             0.00027     2.72213
 1168. RY ( 7) C100             0.00020     2.19684
 1169. RY ( 8) C100             0.00015     2.51617
 1170. RY ( 9) C100             0.00002     2.48295
 1171. RY ( 1) C101             0.01883     0.94720
 1172. RY ( 2) C101             0.01552     1.07048
 1173. RY ( 3) C101             0.01208     0.94070
 1174. RY ( 4) C101             0.00368     2.16675
 1175. RY ( 5) C101             0.00340     1.47452
 1176. RY ( 6) C101             0.00301     1.99286
 1177. RY ( 7) C101             0.00273     2.16537
 1178. RY ( 8) C101             0.00203     2.29803
 1179. RY ( 9) C101             0.00050     1.46509
 1180. RY ( 1) F102             0.00107     1.93636
 1181. RY ( 2) F102             0.00023     2.05986
 1182. RY ( 3) F102             0.00016     1.75023
 1183. RY ( 4) F102             0.00002     2.11491
 1184. RY ( 5) F102             0.00002     3.52763
 1185. RY ( 6) F102             0.00001     3.42584
 1186. RY ( 7) F102             0.00000     3.40880
 1187. RY ( 8) F102             0.00000     3.44668
 1188. RY ( 9) F102             0.00000     3.50264
 1189. RY ( 1) F103             0.00086     1.85632
 1190. RY ( 2) F103             0.00025     2.09051
 1191. RY ( 3) F103             0.00017     1.71768
 1192. RY ( 4) F103             0.00003     1.93529
 1193. RY ( 5) F103             0.00002     3.50499
 1194. RY ( 6) F103             0.00001     3.45962
 1195. RY ( 7) F103             0.00001     3.43014
 1196. RY ( 8) F103             0.00000     3.62719
 1197. RY ( 9) F103             0.00000     3.44670
 1198. RY ( 1) F104             0.00088     1.86040
 1199. RY ( 2) F104             0.00025     2.08074
 1200. RY ( 3) F104             0.00017     1.71912
 1201. RY ( 4) F104             0.00003     1.94152
 1202. RY ( 5) F104             0.00002     3.50673
 1203. RY ( 6) F104             0.00001     3.42522
 1204. RY ( 7) F104             0.00001     3.46521
 1205. RY ( 8) F104             0.00000     3.62927
 1206. RY ( 9) F104             0.00000     3.44026
 1207. RY ( 1) C105             0.00715     1.29246
 1208. RY ( 2) C105             0.00346     0.94834
 1209. RY ( 3) C105             0.00160     1.41459
 1210. RY ( 4) C105             0.00067     1.60077
 1211. RY ( 5) C105             0.00051     0.78214
 1212. RY ( 6) C105             0.00011     2.66914
 1213. RY ( 7) C105             0.00003     2.74888
 1214. RY ( 8) C105             0.00001     2.51947
 1215. RY ( 9) C105             0.00000     2.18970
 1216. RY ( 1) C106             0.00644     1.36459
 1217. RY ( 2) C106             0.00329     0.92404
 1218. RY ( 3) C106             0.00144     0.97474
 1219. RY ( 4) C106             0.00072     1.79498
 1220. RY ( 5) C106             0.00061     1.01799
 1221. RY ( 6) C106             0.00012     2.71854
 1222. RY ( 7) C106             0.00002     2.75765
 1223. RY ( 8) C106             0.00001     2.20286
 1224. RY ( 9) C106             0.00001     2.52379
 1225. RY ( 1) H107             0.00091     0.46159
 1226. RY ( 2) H107             0.00009     1.93059
 1227. RY ( 3) H107             0.00002     2.57206
 1228. RY ( 4) H107             0.00001     2.32278
 1229. RY ( 1) H108             0.00142     0.45110
 1230. RY ( 2) H108             0.00009     1.93007
 1231. RY ( 3) H108             0.00004     2.34366
 1232. RY ( 4) H108             0.00002     2.55498
 1233. RY ( 1) H109             0.00140     0.45464
 1234. RY ( 2) H109             0.00008     1.93468
 1235. RY ( 3) H109             0.00004     2.34774
 1236. RY ( 4) H109             0.00002     2.55864
 1237. RY ( 1) H110             0.00155     0.52833
 1238. RY ( 2) H110             0.00007     2.00537
 1239. RY ( 3) H110             0.00005     2.56426
 1240. RY ( 4) H110             0.00001     2.36342
          -------------------------------
                 Total Lewis  361.39065  ( 97.2104%)
           Valence non-Lewis    9.16785  (  2.4661%)
           Rydberg non-Lewis    1.20292  (  0.3236%)
          -------------------------------
               Total unit  2  371.76141  (100.0000%)
              Charge unit  2   -0.76141

 $CHOOSE
   LONE 6 1 16 3 17 1 18 3 22 1 37 1 51 3 52 3 54 3 55 3 56 2 69 3 70 2 86 3
        87 3 88 3 102 3 103 3 104 3 END
   BOND S 1 2 D 1 6 S 1 8 S 2 3 S 2 18 S 2 19 D 3 4 S 3 69 S 4 5 S 4 7 S 5 6
        S 5 17 S 8 9 D 8 15 D 9 10 S 9 70 S 10 12 S 10 13 D 11 12 S 11 14
        S 11 15 S 12 75 S 15 16 S 17 57 S 17 60 D 20 21 S 20 25 S 20 26 S 21 22
        S 21 27 S 22 23 S 22 28 S 23 24 S 23 29 D 24 25 S 24 30 S 25 31 D 28 33
        S 28 35 D 29 32 S 29 34 S 32 33 S 32 79 S 33 50 D 35 36 S 35 37 S 36 38
        S 36 53 S 37 39 S 37 40 D 38 41 S 38 95 S 39 41 S 39 42 D 40 43 S 40 44
        S 41 45 D 42 46 S 42 47 S 43 46 S 43 48 S 46 49 S 50 51 S 50 52 S 50 56
        S 53 54 S 53 55 S 53 56 S 57 58 S 57 59 S 57 66 S 60 61 S 60 62 S 60 63
        S 63 64 S 63 65 S 63 66 S 66 67 S 66 68 S 70 71 S 71 72 S 71 73 S 71 74
        S 75 76 S 75 77 S 75 78 T 79 80 S 80 81 S 81 82 D 81 90 D 82 83 S 82 91
        S 83 84 S 83 92 S 84 85 D 84 89 S 85 86 S 85 87 S 85 88 S 89 90 S 89 93
        S 90 94 T 95 96 S 96 97 S 97 98 D 97 106 D 98 99 S 98 107 S 99 100
        S 99 108 S 100 101 D 100 105 S 101 102 S 101 103 S 101 104 S 105 106
        S 105 109 S 106 110 END
 $END

 NBO analysis completed in 213.21 CPU seconds (214 wall seconds)
 Maximum scratch memory used by NBO was 12761501 words (97.36 MB)
Stopping NBO...-------
TIMINGS
-------

Total SCF time: 0 days 0 hours 18 min 31 sec 

Total time                  ....    1111.798 sec
Sum of individual times     ....    1108.440 sec  ( 99.7%)

Fock matrix formation       ....     883.008 sec  ( 79.4%)
Diagonalization             ....       2.501 sec  (  0.2%)
Density matrix formation    ....       0.281 sec  (  0.0%)
Population analysis         ....     214.232 sec  ( 19.3%)
Initial guess               ....       3.014 sec  (  0.3%)
Orbital Transformation      ....       0.000 sec  (  0.0%)
Orbital Orthonormalization  ....       0.000 sec  (  0.0%)
DIIS solution               ....       1.412 sec  (  0.1%)
SOSCF solution              ....       2.256 sec  (  0.2%)

Maximum memory used throughout the entire SCF-calculation: 324.6 MB

-------------------------   --------------------
FINAL SINGLE POINT ENERGY     -4885.252832876124
-------------------------   --------------------


                            ***************************************
                            *     ORCA property calculations      *
                            ***************************************

                                    ---------------------
                                    Active property flags
                                    ---------------------
   (+) Dipole Moment


------------------------------------------------------------------------------
                       ORCA ELECTRIC PROPERTIES CALCULATION
------------------------------------------------------------------------------

Dipole Moment Calculation                       ... on
Quadrupole Moment Calculation                   ... off
Polarizability Calculation                      ... off
GBWName                                         ... SaxR_2m_4s_HF_def2-svp.gbw
Electron density                                ... SaxR_2m_4s_HF_def2-svp.scfp
The origin for moment calculation is the CENTER OF MASS  = ( 8.722440, -3.321801 -1.053161)

-------------
DIPOLE MOMENT
-------------
                                X             Y             Z
Electronic contribution:    -20.87139    -176.02880    -219.17896
Nuclear contribution   :     23.23259     177.26982     220.34564
                        -----------------------------------------
Total Dipole Moment    :      2.36120       1.24102       1.16668
                        -----------------------------------------
Magnitude (a.u.)       :      2.91145
Magnitude (Debye)      :      7.40031



--------------------
Rotational spectrum 
--------------------
 
Rotational constants in cm-1:     0.001041     0.000596     0.000470 
Rotational constants in MHz :    31.199475    17.854939    14.098024 

 Dipole components along the rotational axes: 
x,y,z [a.u.] :     2.751101    -0.704545     0.641551 
x,y,z [Debye]:     6.992742    -1.790811     1.630694 

 

Timings for individual modules:

Sum of individual times         ...     1115.223 sec (=  18.587 min)
GTO integral calculation        ...        2.792 sec (=   0.047 min)   0.3 %
SCF iterations                  ...     1112.431 sec (=  18.541 min)  99.7 %
                             ****ORCA TERMINATED NORMALLY****
TOTAL RUN TIME: 0 days 0 hours 18 minutes 36 seconds 933 msec
