
                                 *****************
                                 * O   R   C   A *
                                 *****************

                                            #,                                       
                                            ###                                      
                                            ####                                     
                                            #####                                    
                                            ######                                   
                                           ########,                                 
                                     ,,################,,,,,                         
                               ,,#################################,,                 
                          ,,##########################################,,             
                       ,#########################################, ''#####,          
                    ,#############################################,,   '####,        
                  ,##################################################,,,,####,       
                ,###########''''           ''''###############################       
              ,#####''   ,,,,##########,,,,          '''####'''          '####       
            ,##' ,,,,###########################,,,                        '##       
           ' ,,###''''                  '''############,,,                           
         ,,##''                                '''############,,,,        ,,,,,,###''
      ,#''                                            '''#######################'''  
     '                                                          ''''####''''         
             ,#######,   #######,   ,#######,      ##                                
            ,#'     '#,  ##    ##  ,#'     '#,    #''#        ######   ,####,        
            ##       ##  ##   ,#'  ##            #'  '#       #        #'  '#        
            ##       ##  #######   ##           ,######,      #####,   #    #        
            '#,     ,#'  ##    ##  '#,     ,#' ,#      #,         ##   #,  ,#        
             '#######'   ##     ##  '#######'  #'      '#     #####' # '####'        



                  #######################################################
                  #                        -***-                        #
                  #          Department of theory and spectroscopy      #
                  #    Directorship and core code : Frank Neese         #
                  #        Max Planck Institute fuer Kohlenforschung    #
                  #                Kaiser Wilhelm Platz 1               #
                  #                 D-45470 Muelheim/Ruhr               #
                  #                      Germany                        #
                  #                                                     #
                  #                  All rights reserved                #
                  #                        -***-                        #
                  #######################################################


                         Program Version 5.0.3 -  RELEASE  -


 With contributions from (in alphabetic order):
   Daniel Aravena         : Magnetic Suceptibility
   Michael Atanasov       : Ab Initio Ligand Field Theory (pilot matlab implementation)
   Alexander A. Auer      : GIAO ZORA, VPT2 properties, NMR spectrum
   Ute Becker             : Parallelization
   Giovanni Bistoni       : ED, misc. LED, open-shell LED, HFLD
   Martin Brehm           : Molecular dynamics
   Dmytro Bykov           : SCF Hessian
   Vijay G. Chilkuri      : MRCI spin determinant printing, contributions to CSF-ICE
   Dipayan Datta          : RHF DLPNO-CCSD density
   Achintya Kumar Dutta   : EOM-CC, STEOM-CC
   Dmitry Ganyushin       : Spin-Orbit,Spin-Spin,Magnetic field MRCI
   Miquel Garcia          : C-PCM and meta-GGA Hessian, CC/C-PCM, Gaussian charge scheme
   Yang Guo               : DLPNO-NEVPT2, F12-NEVPT2, CIM, IAO-localization
   Andreas Hansen         : Spin unrestricted coupled pair/coupled cluster methods
   Benjamin Helmich-Paris : MC-RPA, TRAH-SCF, COSX integrals
   Lee Huntington         : MR-EOM, pCC
   Robert Izsak           : Overlap fitted RIJCOSX, COSX-SCS-MP3, EOM
   Marcus Kettner         : VPT2
   Christian Kollmar      : KDIIS, OOCD, Brueckner-CCSD(T), CCSD density, CASPT2, CASPT2-K
   Simone Kossmann        : Meta GGA functionals, TD-DFT gradient, OOMP2, MP2 Hessian
   Martin Krupicka        : Initial AUTO-CI
   Lucas Lang             : DCDCAS
   Marvin Lechner         : AUTO-CI (C++ implementation), FIC-MRCC
   Dagmar Lenk            : GEPOL surface, SMD
   Dimitrios Liakos       : Extrapolation schemes; Compound Job, initial MDCI parallelization
   Dimitrios Manganas     : Further ROCIS development; embedding schemes
   Dimitrios Pantazis     : SARC Basis sets
   Anastasios Papadopoulos: AUTO-CI, single reference methods and gradients
   Taras Petrenko         : DFT Hessian,TD-DFT gradient, ASA, ECA, R-Raman, ABS, FL, XAS/XES, NRVS
   Peter Pinski           : DLPNO-MP2, DLPNO-MP2 Gradient
   Christoph Reimann      : Effective Core Potentials
   Marius Retegan         : Local ZFS, SOC
   Christoph Riplinger    : Optimizer, TS searches, QM/MM, DLPNO-CCSD(T), (RO)-DLPNO pert. Triples
   Tobias Risthaus        : Range-separated hybrids, TD-DFT gradient, RPA, STAB
   Michael Roemelt        : Original ROCIS implementation
   Masaaki Saitow         : Open-shell DLPNO-CCSD energy and density
   Barbara Sandhoefer     : DKH picture change effects
   Avijit Sen             : IP-ROCIS
   Kantharuban Sivalingam : CASSCF convergence, NEVPT2, FIC-MRCI
   Bernardo de Souza      : ESD, SOC TD-DFT
   Georgi Stoychev        : AutoAux, RI-MP2 NMR, DLPNO-MP2 response
   Willem Van den Heuvel  : Paramagnetic NMR
   Boris Wezisla          : Elementary symmetry handling
   Frank Wennmohs         : Technical directorship


 We gratefully acknowledge several colleagues who have allowed us to
 interface, adapt or use parts of their codes:
   Stefan Grimme, W. Hujo, H. Kruse, P. Pracht,  : VdW corrections, initial TS optimization,
                  C. Bannwarth, S. Ehlert          DFT functionals, gCP, sTDA/sTD-DF
   Ed Valeev, F. Pavosevic, A. Kumar             : LibInt (2-el integral package), F12 methods
   Garnet Chan, S. Sharma, J. Yang, R. Olivares  : DMRG
   Ulf Ekstrom                                   : XCFun DFT Library
   Mihaly Kallay                                 : mrcc  (arbitrary order and MRCC methods)
   Jiri Pittner, Ondrej Demel                    : Mk-CCSD
   Frank Weinhold                                : gennbo (NPA and NBO analysis)
   Christopher J. Cramer and Donald G. Truhlar   : smd solvation model
   Lars Goerigk                                  : TD-DFT with DH, B97 family of functionals
   V. Asgeirsson, H. Jonsson                     : NEB implementation
   FAccTs GmbH                                   : IRC, NEB, NEB-TS, DLPNO-Multilevel, CI-OPT
                                                   MM, QMMM, 2- and 3-layer-ONIOM, Crystal-QMMM,
                                                   LR-CPCM, SF, NACMEs, symmetry and pop. for TD-DFT,
                                                   nearIR, NL-DFT gradient (VV10), updates on ESD,
                                                   ML-optimized integration grids
   S Lehtola, MJT Oliveira, MAL Marques          : LibXC Library
   Liviu Ungur et al                             : ANISO software


 Your calculation uses the libint2 library for the computation of 2-el integrals
 For citations please refer to: http://libint.valeyev.net

 Your ORCA version has been built with support for libXC version: 5.1.0
 For citations please refer to: https://tddft.org/programs/libxc/

 This ORCA versions uses:
   CBLAS   interface :  Fast vector & matrix operations
   LAPACKE interface :  Fast linear algebra routines
   SCALAPACK package :  Parallel linear algebra routines
   Shared memory     :  Shared parallel matrices
   BLAS/LAPACK       :  OpenBLAS 0.3.15  USE64BITINT DYNAMIC_ARCH NO_AFFINITY Zen SINGLE_THREADED
        Core in use  :  Zen
   Copyright (c) 2011-2014, The OpenBLAS Project


================================================================================

cite the ECPs for I  [Def2-ECP] as follows:
Ce-Yb(ecp-28): M. Dolg, H. Stoll, H.Preuss, J. Chem. Phys., 1989, 90, 1730-1734.
Y-Cd(ecp-28), Hf-Hg(ecp-46): D. Andrae,U. Haeussermann, M. Dolg, H. Stoll, H. Preuss, Theor. Chim. Acta, 1990, 77, 123-141.
In-Sb(ecp-28), Tl-Bi(ecp-46): B. Metz, H. Stoll, M. Dolg, J. Chem. Phys., 2000, 113, 2563-2569.
Te-Xe(ecp-28), Po-Rn(ecp-46): K. A. Peterson, D. Figgen, E. Goll, H. Stoll, M. Dolg, J. Chem. Phys., 2003, 119, 11113-11123.
Rb(ecp-28), Cs(ecp-46): T. Leininger, A. Nicklass, W. Kuechle, H. Stoll, M. Dolg, A. Bergner, Chem. Phys. Lett., 1996, 255, 274-280.
Sr(ecp-28), Ba(ecp-46): M. Kaupp, P. V. Schleyer, H. Stoll and H. Preuss, J. Chem. Phys., 1991, 94, 1360-1366.
La(ecp-46): M. Dolg, H. Stoll, A. Savin, H. Preuss, Theor. Chim. Acta, 1989, 75, 173-194.
Lu(ecp-28): X. Cao, M. Dolg, J. Chem. Phys., 2001, 115, 7348-7355.

ECP parameters for I  [Def2-ECP] have been obtained from:
TURBOMOLE (7.0.2)

----- Orbital basis set information -----
Your calculation utilizes the basis: def2-SVP
   F. Weigend and R. Ahlrichs, Phys. Chem. Chem. Phys. 7, 3297 (2005).

================================================================================
                                        WARNINGS
                       Please study these warnings very carefully!
================================================================================


INFO   : the flag for use of the SHARK integral package has been found!

================================================================================
                                       INPUT FILE
================================================================================
NAME = SaxR_2m_3d_HF_def2-svp.inp
|  1> #BASE_TS_S-ax-R_2m.mol2_obabel_ClC#CC2=CC=CC=C2C_F__F_F_tmp.xyz_to.mol2.xyz
|  2> %maxcore 6000
|  3> %pal nprocs 8 end
|  4> ! HF def2-svp NBO 
|  5> %nbo 
|  6>  NBOKEYLIST = "$NBO NPA NBBP ARCHIVE $END"
|  7> end
|  8> 
|  9> * xyz 0  1
| 10> C     6.7155    -3.2449    -0.8469
| 11> C     5.3086    -3.6194    -1.3797
| 12> C     4.4558    -4.4143    -0.4146
| 13> C     5.0207    -4.7756     0.7665
| 14> C     6.3427    -4.4195     1.0984
| 15> N     7.1419    -3.6863     0.3037
| 16> H     4.3847    -5.2851     1.4603
| 17> C     7.6468    -2.5033    -1.6654
| 18> C     8.9920    -2.9570    -1.8272
| 19> C     9.9060    -2.1507    -2.5217
| 20> C     8.1966    -0.5125    -2.9720
| 21> C     9.5246    -0.9309    -3.0898
| 22> H    10.9157    -2.4675    -2.6395
| 23> H     7.8862     0.4113    -3.3984
| 24> C     7.2729    -1.2668    -2.2658
| 25> F     6.0462    -0.7541    -2.0731
| 26> N     6.8489    -4.8367     2.3430
| 27> I     4.9932    -3.6291    -3.4416
| 28> H     4.6789    -2.2559    -1.0331
| 29> C     2.1624     4.9968    -1.6322
| 30> C     2.0899     3.7300    -1.0683
| 31> C     3.2440     3.0765    -0.6100
| 32> C     4.5130     3.7311    -0.7784
| 33> C     4.5641     5.0254    -1.3371
| 34> C     3.3948     5.6439    -1.7654
| 35> H     1.2707     5.4828    -1.9624
| 36> H     1.1474     3.2399    -0.9859
| 37> C     3.1659     1.7403    -0.0426
| 38> C     5.6796     3.0581    -0.3997
| 39> H     5.5070     5.5080    -1.4731
| 40> H     3.4384     6.6217    -2.2017
| 41> C     5.6081     1.7568     0.1282
| 42> C     4.3887     1.0631     0.2421
| 43> H     6.6417     3.5204    -0.5248
| 44> C     1.8531     1.1353     0.2221
| 45> C     1.4467    -0.0758    -0.4175
| 46> C     0.9290     1.7483     1.1584
| 47> C     0.2255    -0.6784    -0.0737
| 48> C    -0.3630     1.1692     1.4041
| 49> C     1.2949     2.8989     1.8830
| 50> C    -0.7007    -0.0368     0.7749
| 51> C    -1.2497     1.8024     2.2985
| 52> C     0.4169     3.4964     2.7763
| 53> H     2.2690     3.3109     1.7440
| 54> H    -1.6521    -0.5011     0.9629
| 55> C    -0.8549     2.9544     2.9792
| 56> H    -2.2151     1.3800     2.4786
| 57> H     0.7107     4.3741     3.3028
| 58> H    -1.5348     3.4259     3.6590
| 59> S     4.3160    -0.6275     0.7353
| 60> O     3.3828    -0.7219     1.8281
| 61> O     5.6326    -1.1666     0.9536
| 62> S     2.5815    -0.7895    -1.5545
| 63> O     3.0843     0.2826    -2.3846
| 64> O     1.9943    -1.9066    -2.2481
| 65> N     3.6798    -1.3626    -0.5322
| 66> C     8.1571    -4.4259     2.8363
| 67> H     8.9364    -4.9190     2.2474
| 68> H     8.2732    -3.3425     2.7083
| 69> C     6.0805    -5.5594     3.3659
| 70> H     5.6566    -6.4825     2.9547
| 71> H     5.2487    -4.9243     3.6933
| 72> C     7.0605    -5.8382     4.5130
| 73> H     7.4351    -6.8690     4.4544
| 74> H     6.5841    -5.7334     5.4983
| 75> C     8.2125    -4.8403     4.3173
| 76> H     9.1853    -5.2731     4.5893
| 77> H     8.0702    -3.9637     4.9658
| 78> Cl     2.7746    -4.0508    -0.2370
| 79> O     9.3395    -4.1707    -1.2600
| 80> C    10.5915    -4.6830    -1.6458
| 81> H    10.6455    -4.7362    -2.7343
| 82> H    11.3938    -4.0550    -1.2510
| 83> H    10.6987    -5.6880    -1.2373
| 84> C    10.4995    -0.1235    -3.8502
| 85> H    11.5157    -0.2948    -3.4893
| 86> H    10.2878     0.9415    -3.7445
| 87> H    10.4695    -0.3748    -4.9131
| 88> C     6.8680     1.2499     0.5585
| 89> C     7.9712     0.8808     0.8590
| 90> C     9.2917     0.4191     1.1594
| 91> C     9.5039    -0.9592     1.2278
| 92> C    10.7753    -1.4750     1.4715
| 93> C    11.8472    -0.6109     1.6655
| 94> C    11.6424     0.7695     1.6167
| 95> C    10.3635     1.3024     1.3570
| 96> C    10.1637     2.7913     1.2936
| 97> F    11.3247     3.4932     1.4781
| 98> F     9.6792     3.2288     0.0957
| 99> F     9.3109     3.2703     2.2438
|100> H     8.6692    -1.6475     1.0791
|101> H    10.9052    -2.5545     1.5030
|102> H    12.8371    -1.0145     1.8576
|103> H    12.4900     1.4330     1.7789
|104> C    -0.2101    -1.9379    -0.5813
|105> C    -0.6000    -2.9958    -0.9972
|106> C    -1.0208    -4.2655    -1.5074
|107> C    -0.1962    -4.9061    -2.4427
|108> C    -0.5531    -6.1466    -2.9692
|109> C    -1.7367    -6.7567    -2.5626
|110> C    -2.5628    -6.1256    -1.6289
|111> C    -2.2180    -4.8705    -1.0901
|112> C    -3.1199    -4.2066    -0.0831
|113> F    -2.5311    -4.0138     1.1307
|114> F    -3.5724    -2.9839    -0.4842
|115> F    -4.2505    -4.9306     0.1797
|116> H     0.7379    -4.4387    -2.7593
|117> H     0.1004    -6.6303    -3.6915
|118> H    -2.0128    -7.7269    -2.9668
|119> H    -3.4790    -6.6248    -1.3159
|120> *
|121> 
|122> 
|123> 
|124> 
|125>                          ****END OF INPUT****
================================================================================

                       ****************************
                       * Single Point Calculation *
                       ****************************

---------------------------------
CARTESIAN COORDINATES (ANGSTROEM)
---------------------------------
  C      6.715500   -3.244900   -0.846900
  C      5.308600   -3.619400   -1.379700
  C      4.455800   -4.414300   -0.414600
  C      5.020700   -4.775600    0.766500
  C      6.342700   -4.419500    1.098400
  N      7.141900   -3.686300    0.303700
  H      4.384700   -5.285100    1.460300
  C      7.646800   -2.503300   -1.665400
  C      8.992000   -2.957000   -1.827200
  C      9.906000   -2.150700   -2.521700
  C      8.196600   -0.512500   -2.972000
  C      9.524600   -0.930900   -3.089800
  H     10.915700   -2.467500   -2.639500
  H      7.886200    0.411300   -3.398400
  C      7.272900   -1.266800   -2.265800
  F      6.046200   -0.754100   -2.073100
  N      6.848900   -4.836700    2.343000
  I      4.993200   -3.629100   -3.441600
  H      4.678900   -2.255900   -1.033100
  C      2.162400    4.996800   -1.632200
  C      2.089900    3.730000   -1.068300
  C      3.244000    3.076500   -0.610000
  C      4.513000    3.731100   -0.778400
  C      4.564100    5.025400   -1.337100
  C      3.394800    5.643900   -1.765400
  H      1.270700    5.482800   -1.962400
  H      1.147400    3.239900   -0.985900
  C      3.165900    1.740300   -0.042600
  C      5.679600    3.058100   -0.399700
  H      5.507000    5.508000   -1.473100
  H      3.438400    6.621700   -2.201700
  C      5.608100    1.756800    0.128200
  C      4.388700    1.063100    0.242100
  H      6.641700    3.520400   -0.524800
  C      1.853100    1.135300    0.222100
  C      1.446700   -0.075800   -0.417500
  C      0.929000    1.748300    1.158400
  C      0.225500   -0.678400   -0.073700
  C     -0.363000    1.169200    1.404100
  C      1.294900    2.898900    1.883000
  C     -0.700700   -0.036800    0.774900
  C     -1.249700    1.802400    2.298500
  C      0.416900    3.496400    2.776300
  H      2.269000    3.310900    1.744000
  H     -1.652100   -0.501100    0.962900
  C     -0.854900    2.954400    2.979200
  H     -2.215100    1.380000    2.478600
  H      0.710700    4.374100    3.302800
  H     -1.534800    3.425900    3.659000
  S      4.316000   -0.627500    0.735300
  O      3.382800   -0.721900    1.828100
  O      5.632600   -1.166600    0.953600
  S      2.581500   -0.789500   -1.554500
  O      3.084300    0.282600   -2.384600
  O      1.994300   -1.906600   -2.248100
  N      3.679800   -1.362600   -0.532200
  C      8.157100   -4.425900    2.836300
  H      8.936400   -4.919000    2.247400
  H      8.273200   -3.342500    2.708300
  C      6.080500   -5.559400    3.365900
  H      5.656600   -6.482500    2.954700
  H      5.248700   -4.924300    3.693300
  C      7.060500   -5.838200    4.513000
  H      7.435100   -6.869000    4.454400
  H      6.584100   -5.733400    5.498300
  C      8.212500   -4.840300    4.317300
  H      9.185300   -5.273100    4.589300
  H      8.070200   -3.963700    4.965800
  Cl     2.774600   -4.050800   -0.237000
  O      9.339500   -4.170700   -1.260000
  C     10.591500   -4.683000   -1.645800
  H     10.645500   -4.736200   -2.734300
  H     11.393800   -4.055000   -1.251000
  H     10.698700   -5.688000   -1.237300
  C     10.499500   -0.123500   -3.850200
  H     11.515700   -0.294800   -3.489300
  H     10.287800    0.941500   -3.744500
  H     10.469500   -0.374800   -4.913100
  C      6.868000    1.249900    0.558500
  C      7.971200    0.880800    0.859000
  C      9.291700    0.419100    1.159400
  C      9.503900   -0.959200    1.227800
  C     10.775300   -1.475000    1.471500
  C     11.847200   -0.610900    1.665500
  C     11.642400    0.769500    1.616700
  C     10.363500    1.302400    1.357000
  C     10.163700    2.791300    1.293600
  F     11.324700    3.493200    1.478100
  F      9.679200    3.228800    0.095700
  F      9.310900    3.270300    2.243800
  H      8.669200   -1.647500    1.079100
  H     10.905200   -2.554500    1.503000
  H     12.837100   -1.014500    1.857600
  H     12.490000    1.433000    1.778900
  C     -0.210100   -1.937900   -0.581300
  C     -0.600000   -2.995800   -0.997200
  C     -1.020800   -4.265500   -1.507400
  C     -0.196200   -4.906100   -2.442700
  C     -0.553100   -6.146600   -2.969200
  C     -1.736700   -6.756700   -2.562600
  C     -2.562800   -6.125600   -1.628900
  C     -2.218000   -4.870500   -1.090100
  C     -3.119900   -4.206600   -0.083100
  F     -2.531100   -4.013800    1.130700
  F     -3.572400   -2.983900   -0.484200
  F     -4.250500   -4.930600    0.179700
  H      0.737900   -4.438700   -2.759300
  H      0.100400   -6.630300   -3.691500
  H     -2.012800   -7.726900   -2.966800
  H     -3.479000   -6.624800   -1.315900

----------------------------
CARTESIAN COORDINATES (A.U.)
----------------------------
  NO LB      ZA    FRAG     MASS         X           Y           Z
   0 C     6.0000    0    12.011   12.690456   -6.131972   -1.600409
   1 C     6.0000    0    12.011   10.031800   -6.839675   -2.607255
   2 C     6.0000    0    12.011    8.420242   -8.341818   -0.783480
   3 C     6.0000    0    12.011    9.487748   -9.024576    1.448475
   4 C     6.0000    0    12.011   11.985966   -8.351645    2.075675
   5 N     7.0000    0    14.007   13.496235   -6.966097    0.573910
   6 H     1.0000    0     1.008    8.285882   -9.987392    2.759567
   7 C     6.0000    0    12.011   14.450358   -4.730551   -3.147150
   8 C     6.0000    0    12.011   16.992417   -5.587920   -3.452908
   9 C     6.0000    0    12.011   18.719627   -4.064234   -4.765322
  10 C     6.0000    0    12.011   15.489329   -0.968485   -5.616266
  11 C     6.0000    0    12.011   17.998886   -1.759146   -5.838876
  12 H     1.0000    0     1.008   20.627684   -4.662899   -4.987932
  13 H     1.0000    0     1.008   14.902758    0.777244   -6.422045
  14 C     6.0000    0    12.011   13.743789   -2.393905   -4.281741
  15 F     9.0000    0    18.998   11.425662   -1.425042   -3.917591
  16 N     7.0000    0    14.007   12.942545   -9.140038    4.427628
  17 I    25.0000*   0   126.900    9.435781   -6.858005   -6.503681
  18 H     1.0000    0     1.008    8.841840   -4.263033   -1.952276
  19 C     6.0000    0    12.011    4.086344    9.442584   -3.084411
  20 C     6.0000    0    12.011    3.949339    7.048678   -2.018794
  21 C     6.0000    0    12.011    6.130272    5.813742   -1.152733
  22 C     6.0000    0    12.011    8.528334    7.050757   -1.470963
  23 C     6.0000    0    12.011    8.624899    9.496630   -2.526753
  24 C     6.0000    0    12.011    6.415242   10.665425   -3.336123
  25 H     1.0000    0     1.008    2.401275   10.360990   -3.708399
  26 H     1.0000    0     1.008    2.168272    6.122524   -1.863081
  27 C     6.0000    0    12.011    5.982684    3.288690   -0.080502
  28 C     6.0000    0    12.011   10.732889    5.778971   -0.755324
  29 H     1.0000    0     1.008   10.406722   10.408612   -2.783756
  30 H     1.0000    0     1.008    6.497634   12.513200   -4.160610
  31 C     6.0000    0    12.011   10.597773    3.319871    0.242263
  32 C     6.0000    0    12.011    8.293441    2.008968    0.457503
  33 H     1.0000    0     1.008   12.550994    6.652592   -0.991728
  34 C     6.0000    0    12.011    3.501851    2.145406    0.419708
  35 C     6.0000    0    12.011    2.733867   -0.143241   -0.788961
  36 C     6.0000    0    12.011    1.755556    3.303808    2.189059
  37 C     6.0000    0    12.011    0.426133   -1.281990   -0.139273
  38 C     6.0000    0    12.011   -0.685971    2.209468    2.653364
  39 C     6.0000    0    12.011    2.447006    5.478127    3.558354
  40 C     6.0000    0    12.011   -1.324131   -0.069542    1.464349
  41 C     6.0000    0    12.011   -2.361591    3.406042    4.343536
  42 C     6.0000    0    12.011    0.787827    6.607238    5.246447
  43 H     1.0000    0     1.008    4.287789    6.256694    3.295682
  44 H     1.0000    0     1.008   -3.122017   -0.946942    1.819617
  45 C     6.0000    0    12.011   -1.615527    5.583007    5.629872
  46 H     1.0000    0     1.008   -4.185932    2.607822    4.683875
  47 H     1.0000    0     1.008    1.343028    8.265851    6.241387
  48 H     1.0000    0     1.008   -2.900352    6.474013    6.914508
  49 S    16.0000    0    32.060    8.156058   -1.185803    1.389516
  50 O     8.0000    0    15.999    6.392566   -1.364193    3.454608
  51 O     8.0000    0    15.999   10.644071   -2.204555    1.802043
  52 S    16.0000    0    32.060    4.878328   -1.491939   -2.937579
  53 O     8.0000    0    15.999    5.828482    0.534037   -4.506241
  54 O     8.0000    0    15.999    3.768681   -3.602952   -4.248293
  55 N     7.0000    0    14.007    6.953814   -2.574941   -1.005712
  56 C     6.0000    0    12.011   15.414685   -8.363739    5.359830
  57 H     1.0000    0     1.008   16.887349   -9.295563    4.246971
  58 H     1.0000    0     1.008   15.634082   -6.316410    5.117945
  59 C     6.0000    0    12.011   11.490480  -10.505743    6.360629
  60 H     1.0000    0     1.008   10.689425  -12.250150    5.583574
  61 H     1.0000    0     1.008    9.918606   -9.305578    6.979326
  62 C     6.0000    0    12.011   13.342411  -11.032599    8.528334
  63 H     1.0000    0     1.008   14.050303  -12.980529    8.417596
  64 H     1.0000    0     1.008   12.442146  -10.834556   10.390281
  65 C     6.0000    0    12.011   15.519376   -9.146841    8.158515
  66 H     1.0000    0     1.008   17.357701   -9.964715    8.672520
  67 H     1.0000    0     1.008   15.250468   -7.490307    9.384002
  68 Cl   17.0000    0    35.453    5.243234   -7.654903   -0.447865
  69 O     8.0000    0    15.999   17.649097   -7.881481   -2.381055
  70 C     6.0000    0    12.011   20.015034   -8.849587   -3.110111
  71 H     1.0000    0     1.008   20.117080   -8.950121   -5.167078
  72 H     1.0000    0     1.008   21.531162   -7.662839   -2.364047
  73 H     1.0000    0     1.008   20.217613  -10.748762   -2.338158
  74 C     6.0000    0    12.011   19.841180   -0.233381   -7.275824
  75 H     1.0000    0     1.008   21.761519   -0.557091   -6.593821
  76 H     1.0000    0     1.008   19.441125    1.779177   -7.076080
  77 H     1.0000    0     1.008   19.784488   -0.708269   -9.284413
  78 C     6.0000    0    12.011   12.978639    2.361969    1.055412
  79 C     6.0000    0    12.011   15.063385    1.664471    1.623275
  80 C     6.0000    0    12.011   17.558768    0.791984    2.190948
  81 C     6.0000    0    12.011   17.959768   -1.812625    2.320206
  82 C     6.0000    0    12.011   20.362366   -2.787346    2.780732
  83 C     6.0000    0    12.011   22.387963   -1.154434    3.147339
  84 C     6.0000    0    12.011   22.000948    1.454144    3.055120
  85 C     6.0000    0    12.011   19.584177    2.461179    2.564358
  86 C     6.0000    0    12.011   19.206610    5.274793    2.444550
  87 F     9.0000    0    18.998   21.400582    6.601191    2.793204
  88 F     9.0000    0    18.998   18.291037    6.101548    0.180847
  89 F     9.0000    0    18.998   17.595051    6.179971    4.240167
  90 H     1.0000    0     1.008   16.382414   -3.113324    2.039203
  91 H     1.0000    0     1.008   20.607841   -4.827305    2.840258
  92 H     1.0000    0     1.008   24.258603   -1.917127    3.510355
  93 H     1.0000    0     1.008   23.602679    2.707978    3.361634
  94 C     6.0000    0    12.011   -0.397031   -3.662100   -1.098498
  95 C     6.0000    0    12.011   -1.133836   -5.661242   -1.884435
  96 C     6.0000    0    12.011   -1.929032   -8.060627   -2.848573
  97 C     6.0000    0    12.011   -0.370764   -9.271185   -4.616034
  98 C     6.0000    0    12.011   -1.045208  -11.615391   -5.610975
  99 C     6.0000    0    12.011   -3.281887  -12.768313   -4.842612
 100 C     6.0000    0    12.011   -4.842990  -11.575706   -3.078175
 101 C     6.0000    0    12.011   -4.191413   -9.203911   -2.059990
 102 C     6.0000    0    12.011   -5.895757   -7.949322   -0.157036
 103 F     9.0000    0    18.998   -4.783086   -7.584983    2.136713
 104 F     9.0000    0    18.998   -6.750858   -5.638754   -0.915005
 105 F     9.0000    0    18.998   -8.032281   -9.317484    0.339584
 106 H     1.0000    0     1.008    1.394429   -8.387927   -5.214321
 107 H     1.0000    0     1.008    0.189729  -12.529451   -6.975924
 108 H     1.0000    0     1.008   -3.803641  -14.601725   -5.606439
 109 H     1.0000    0     1.008   -6.574357  -12.519058   -2.486691
* core charge reduced due to ECP

--------------------------------
INTERNAL COORDINATES (ANGSTROEM)
--------------------------------
 C      0   0   0     0.000000000000     0.00000000     0.00000000
 C      1   0   0     1.550320515248     0.00000000     0.00000000
 C      2   1   0     1.513456923735   114.77607477     0.00000000
 C      3   2   1     1.358177790276   117.38020811   356.55269519
 C      4   3   2     1.408775645729   121.86646482     0.62758731
 N      1   2   3     1.304044201705   121.21157529     5.19897213
 H      4   3   2     1.070254497771   116.30908713   176.40843571
 C      1   2   3     1.444725752522   120.94934762   179.10830431
 C      8   1   2     1.428840778393   120.53387126   229.73171062
 C      9   8   1     1.402799322783   119.14139914   186.03621316
 C     10   9   8     2.410086656118    91.20709992   357.98170090
 C     11  10   9     1.397325803097    30.47408930   179.49588340
 H     10   9   8     1.064769068860   120.10695569   179.14230387
 H     11  10   9     1.063753524083   150.70993662   179.66393638
 C     11  10   9     1.385968477275    90.43357123     1.33651116
 F     15  11  10     1.343423786450   118.29065807   174.63087082
 N      5   4   3     1.406884302279   118.10576941   180.05599853
 I      2   1   3     2.085905764890   118.55853289   201.29380056
 H      2   1   3     1.541358459282    94.57552193    97.90366530
 C     16  15  11     6.953498835838   146.58860973   335.48932158
 C     20  16  15     1.388532210645    45.60264421   209.69863252
 C     21  20  16     1.403227690006   120.96922912    40.79288650
 C     22  21  20     1.437783266004   118.40014533   357.95143314
 C     23  22  21     1.410662748498   119.74153742     2.87885794
 C     24  23  22     1.390412036053   119.97852592   357.75264605
 H     20  16  15     1.067874959909   145.40495330   130.89051440
 H     21  20  16     1.065501769121   119.81742892   221.20074958
 C     22  21  20     1.453778803670   120.75267577   181.12555918
 C     23  22  21     1.399034756538   119.02924047   183.79400643
 H     24  23  22     1.067922829609   119.80498593   180.70741073
 H     25  24  23     1.071611632076   119.80766646   180.83473722
 C     29  23  22     1.406119607288   120.29213503     0.46718607
 C     32  29  23     1.407525935818   122.04224063     2.82566206
 H     29  23  22     1.074712850021   120.53396688   179.33667711
 C     28  22  21     1.469535617125   119.78134576   351.74548565
 C     35  28  22     1.428640028139   121.49943247   119.12604628
 C     35  28  22     1.451339898163   120.73901023   298.51149492
 C     36  35  28     1.404512242738   120.09694696   175.54791173
 C     37  35  28     1.437007063309   120.83482132   179.08157502
 C     37  35  28     1.408122270969   120.77353332   356.84593892
 C     39  37  35     1.401559820343   119.11967080     3.03438282
 C     39  37  35     1.409656160204   119.53864457   181.29262476
 C     40  37  35     1.387759035280   121.24162550   179.71153729
 H     40  37  35     1.066740741699   119.06621448   359.27440595
 H     41  39  37     1.075211816341   120.41606514   178.47007367
 C     42  39  37     1.395106995897   120.16446477   357.51735451
 H     42  39  37     1.069043932680   119.83093521   179.49811206
 H     43  40  37     1.064837067349   119.90706212   180.87342664
 H     46  42  39     1.070842798921   119.58075683   180.20917702
 S     33  32  29     1.762571953141   122.08000618   173.11123616
 O     50  33  32     1.440133827115   107.57366445   127.76920458
 O     50  33  32     1.439346817136   111.34364255   358.42078149
 S     36  35  28     1.757813337644   116.75204945   358.99591327
 O     53  36  35     1.446123182858   107.14218273   314.97112074
 O     53  36  35     1.440068474066   111.30046333   187.02497517
 N     19   2   1     1.430764309731   156.39260885   223.52049594
 C     17   5   4     1.457219533907   122.60766700   185.53379151
 H     57  17   5     1.094193451817   109.27760658   289.40169212
 H     57  17   5     1.097095606590   109.50533272    47.35650007
 C     17   5   4     1.469373424287   124.99757956   356.51747178
 H     60  17   5     1.095851385910   110.81652527    56.27189916
 H     60  17   5     1.096555520710   108.64288160   297.95755060
 C     60  17   5     1.534264595824   106.01127384   178.00642852
 H     63  60  17     1.098320426834   110.39605653   260.41756201
 H     63  60  17     1.099434440974   112.08253335   141.79371587
 C     63  60  17     1.536621911857   105.40471386    19.52517217
 H     66  63  60     1.098926603555   112.10874294   216.05722770
 H     66  63  60     1.099649535079   110.21633125    97.72518761
 Cl     3   2   1     1.729192716270   120.19367366   138.24775222
 O      9   8   1     1.384030267010   117.93216443     4.67530620
 C     70   9   8     1.406697170680   115.49529716   169.06838214
 H     71  70   9     1.091136329704   109.59689292   305.85012920
 H     71  70   9     1.092673935811   110.18795958    67.79812419
 H     71  70   9     1.090132602026   108.69293643   186.93350361
 C     12  11  10     1.476662767865   120.47364704   177.54242775
 H     75  12  11     1.091904272361   111.00510427   153.78286256
 H     75  12  11     1.090969467950   110.83977016    34.31213429
 H     75  12  11     1.092615257078   110.91949410   274.00969599
 C     32  29  23     1.424588961771   113.43608552   184.51501940
 C     79  32  29     1.201492946296   175.48569852   334.13966740
 C     80  79  32     1.430778564279   177.51924632   296.03608524
 C     81  80  79     1.396215703249   117.97618350   290.84825246
 C     82  81  80     1.393519748694   120.83871282   177.81988740
 C     83  82  81     1.390422389060   119.84981061     0.76679410
 C     84  83  82     1.396362646306   119.76326274     0.08831928
 C     81  80  79     1.402861322441   122.10797478   109.58646208
 C     86  81  80     1.503583323265   121.06632852     1.48639356
 F     87  86  81     1.369169405150   112.90966204   181.49929583
 F     87  86  81     1.364225388270   113.68956038   300.69658882
 F     87  86  81     1.363667437464   113.67501197    62.21515336
 H     82  81  80     1.092058913246   119.95725095   358.45950973
 H     83  82  81     1.087743770380   118.77407667   180.91195481
 H     84  83  82     1.086138748043   119.75910895   179.86027526
 H     85  84  83     1.088561826448   118.89092652   179.48915490
 C     38  36  35     1.426094446381   123.87489439   185.13733993
 C     95  38  36     1.201726770110   178.76276905   185.87741328
 C     96  95  38     1.431612646633   178.11648524   189.48670886
 C     97  96  95     1.401827239713   118.04521692   341.91448731
 C     98  97  96     1.394066035021   120.53227562   179.73699536
 C     99  98  97     1.392283925785   119.81995258   359.90555615
 C    100  99  98     1.397327488458   119.98782526     0.00000000
 C     97  96  95     1.404796116880   121.77554657   161.60046588
 C    102  97  96     1.506066339840   121.27342239     0.10407023
 F    103 102  97     1.362779409883   113.52590083   298.32089554
 F    103 102  97     1.364050127378   113.40218251    59.60542420
 F    103 102  97     1.368026388634   112.95848973   178.75733338
 H     98  97  96     1.091439934215   120.08449837     0.22522987
 H     99  98  97     1.087540909575   119.52264199   180.18981724
 H    100  99  98     1.086690797789   119.90699918   180.43272870
 H    101 100  99     1.089308073963   118.83389053   180.66069464

---------------------------
INTERNAL COORDINATES (A.U.)
---------------------------
 C      0   0   0     0.000000000000     0.00000000     0.00000000
 C      1   0   0     2.929681193619     0.00000000     0.00000000
 C      2   1   0     2.860019101345   114.77607477     0.00000000
 C      3   2   1     2.566584064797   117.38020811   356.55269519
 C      4   3   2     2.662200154566   121.86646482     0.62758731
 N      1   2   3     2.464286407750   121.21157529     5.19897213
 H      4   3   2     2.022487894385   116.30908713   176.40843571
 C      1   2   3     2.730136010890   120.94934762   179.10830431
 C      8   1   2     2.700117760142   120.53387126   229.73171062
 C      9   8   1     2.650906540910   119.14139914   186.03621316
 C     10   9   8     4.554403739082    91.20709992   357.98170090
 C     11  10   9     2.640563087714    30.47408930   179.49588340
 H     10   9   8     2.012121936015   120.10695569   179.14230387
 H     11  10   9     2.010202834511   150.70993662   179.66393638
 C     11  10   9     2.619100852298    90.43357123     1.33651116
 F     15  11  10     2.538703038186   118.29065807   174.63087082
 N      5   4   3     2.658626033421   118.10576941   180.05599853
 I      2   1   3     3.941790636809   118.55853289   201.29380056
 H      2   1   3     2.912745362246    94.57552193    97.90366530
 C     16  15  11    13.140208472274   146.58860973   335.48932158
 C     20  16  15     2.623945606248    45.60264421   209.69863252
 C     21  20  16     2.651716037647   120.96922912    40.79288650
 C     22  21  20     2.717016612682   118.40014533   357.95143314
 C     23  22  21     2.665766261986   119.74153742     2.87885794
 C     24  23  22     2.627497961447   119.97852592   357.75264605
 H     20  16  15     2.017991219500   145.40495330   130.89051440
 H     21  20  16     2.013506538847   119.81742892   221.20074958
 C     22  21  20     2.747243798236   120.75267577   181.12555918
 C     23  22  21     2.643792541693   119.02924047   183.79400643
 H     24  23  22     2.018081680123   119.80498593   180.70741073
 H     25  24  23     2.025052506548   119.80766646   180.83473722
 C     29  23  22     2.657180969311   120.29213503     0.46718607
 C     32  29  23     2.659838545087   122.04224063     2.82566206
 H     29  23  22     2.030912959145   120.53396688   179.33667711
 C     28  22  21     2.777019860410   119.78134576   351.74548565
 C     35  28  22     2.699738397140   121.49943247   119.12604628
 C     35  28  22     2.742634934761   120.73901023   298.51149492
 C     36  35  28     2.654143490514   120.09694696   175.54791173
 C     37  35  28     2.715549802164   120.83482132   179.08157502
 C     37  35  28     2.660965455207   120.77353332   356.84593892
 C     39  37  35     2.648564220756   119.11967080     3.03438282
 C     39  37  35     2.663864085780   119.53864457   181.29262476
 C     40  37  35     2.622484516553   121.24162550   179.71153729
 H     40  37  35     2.015847857707   119.06621448   359.27440595
 H     41  39  37     2.031855868841   120.41606514   178.47007367
 C     42  39  37     2.636370149762   120.16446477   357.51735451
 H     42  39  37     2.020200257895   119.83093521   179.49811206
 H     43  40  37     2.012250434537   119.90706212   180.87342664
 H     46  42  39     2.023599622442   119.58075683   180.20917702
 S     33  32  29     3.330778282768   122.08000618   173.11123616
 O     50  33  32     2.721458529443   107.57366445   127.76920458
 O     50  33  32     2.719971296119   111.34364255   358.42078149
 S     36  35  28     3.321785802702   116.75204945   358.99591327
 O     53  36  35     2.732776771517   107.14218273   314.97112074
 O     53  36  35     2.721335030079   111.30046333   187.02497517
 N     19   2   1     2.703752707580   156.39260885   223.52049594
 C     17   5   4     2.753745836085   122.60766700   185.53379151
 H     57  17   5     2.067725961465   109.27760658   289.40169212
 H     57  17   5     2.073210239184   109.50533272    47.35650007
 C     17   5   4     2.776713360364   124.99757956   356.51747178
 H     60  17   5     2.070859002847   110.81652527    56.27189916
 H     60  17   5     2.072189624782   108.64288160   297.95755060
 C     60  17   5     2.899339903079   106.01127384   178.00642852
 H     63  60  17     2.075524814007   110.39605653   260.41756201
 H     63  60  17     2.077629995642   112.08253335   141.79371587
 C     63  60  17     2.903794584793   105.40471386    19.52517217
 H     66  63  60     2.076670321998   112.10874294   216.05722770
 H     66  63  60     2.078036464594   110.21633125    97.72518761
 Cl     3   2   1     3.267700666521   120.19367366   138.24775222
 O      9   8   1     2.615438165707   117.93216443     4.67530620
 C     70   9   8     2.658272405948   115.49529716   169.06838214
 H     71  70   9     2.061948837913   109.59689292   305.85012920
 H     71  70   9     2.064854492356   110.18795958    67.79812419
 H     71  70   9     2.060052067488   108.69293643   186.93350361
 C     12  11  10     2.790488223424   120.47364704   177.54242775
 H     75  12  11     2.063400039221   111.00510427   153.78286256
 H     75  12  11     2.061633514896   110.83977016    34.31213429
 H     75  12  11     2.064743605622   110.91949410   274.00969599
 C     32  29  23     2.692082991155   113.43608552   184.51501940
 C     79  32  29     2.270492620338   175.48569852   334.13966740
 C     80  79  32     2.703779644772   177.51924632   296.03608524
 C     81  80  79     2.638465303021   117.97618350   290.84825246
 C     82  81  80     2.633370687242   120.83871282   177.81988740
 C     83  82  81     2.627517525796   119.84981061     0.76679410
 C     84  83  82     2.638742985157   119.76326274     0.08831928
 C     81  80  79     2.651023703283   122.10797478   109.58646208
 C     86  81  80     2.841360700502   121.06632852     1.48639356
 F     87  86  81     2.587355206678   112.90966204   181.49929583
 F     87  86  81     2.578012368772   113.68956038   300.69658882
 F     87  86  81     2.576957994553   113.67501197    62.21515336
 H     82  81  80     2.063692268143   119.95725095   358.45950973
 H     83  82  81     2.055537829897   118.77407667   180.91195481
 H     84  83  82     2.052504777241   119.75910895   179.86027526
 H     85  84  83     2.057083731828   118.89092652   179.48915490
 C     38  36  35     2.694927944767   123.87489439   185.13733993
 C     95  38  36     2.270934483310   178.76276905   185.87741328
 C     96  95  38     2.705355831995   178.11648524   189.48670886
 C     97  96  95     2.649069570127   118.04521692   341.91448731
 C     98  97  96     2.634403018792   120.53227562   179.73699536
 C     99  98  97     2.631035320395   119.81995258   359.90555615
 C    100  99  98     2.640566272585   119.98782526     0.00000000
 C     97  96  95     2.654679934898   121.77554657   161.60046588
 C    102  97  96     2.846052921815   121.27342239     0.10407023
 F    103 102  97     2.575279865625   113.52590083   298.32089554
 F    103 102  97     2.577681173685   113.40218251    59.60542420
 F    103 102  97     2.585195218496   112.95848973   178.75733338
 H     98  97  96     2.062522567292   120.08449837     0.22522987
 H     99  98  97     2.055154478533   119.52264199   180.18981724
 H    100  99  98     2.053548000074   119.90699918   180.43272870
 H    101 100  99     2.058493935258   118.83389053   180.66069464

---------------------
BASIS SET INFORMATION
---------------------
There are 8 groups of distinct atoms

 Group   1 Type C   : 7s4p1d contracted to 3s2p1d pattern {511/31/1}
 Group   2 Type N   : 7s4p1d contracted to 3s2p1d pattern {511/31/1}
 Group   3 Type H   : 4s1p contracted to 2s1p pattern {31/1}
 Group   4 Type F   : 7s4p1d contracted to 3s2p1d pattern {511/31/1}
 Group   5 Type I   : 10s7p6d contracted to 4s4p2d pattern {6211/4111/51}
 Group   6 Type S   : 10s7p1d contracted to 4s3p1d pattern {5311/511/1}
 Group   7 Type O   : 7s4p1d contracted to 3s2p1d pattern {511/31/1}
 Group   8 Type Cl  : 10s7p1d contracted to 4s3p1d pattern {5311/511/1}

Atom   0C    basis set group =>   1
Atom   1C    basis set group =>   1
Atom   2C    basis set group =>   1
Atom   3C    basis set group =>   1
Atom   4C    basis set group =>   1
Atom   5N    basis set group =>   2
Atom   6H    basis set group =>   3
Atom   7C    basis set group =>   1
Atom   8C    basis set group =>   1
Atom   9C    basis set group =>   1
Atom  10C    basis set group =>   1
Atom  11C    basis set group =>   1
Atom  12H    basis set group =>   3
Atom  13H    basis set group =>   3
Atom  14C    basis set group =>   1
Atom  15F    basis set group =>   4
Atom  16N    basis set group =>   2
Atom  17I    basis set group =>   5
Atom  18H    basis set group =>   3
Atom  19C    basis set group =>   1
Atom  20C    basis set group =>   1
Atom  21C    basis set group =>   1
Atom  22C    basis set group =>   1
Atom  23C    basis set group =>   1
Atom  24C    basis set group =>   1
Atom  25H    basis set group =>   3
Atom  26H    basis set group =>   3
Atom  27C    basis set group =>   1
Atom  28C    basis set group =>   1
Atom  29H    basis set group =>   3
Atom  30H    basis set group =>   3
Atom  31C    basis set group =>   1
Atom  32C    basis set group =>   1
Atom  33H    basis set group =>   3
Atom  34C    basis set group =>   1
Atom  35C    basis set group =>   1
Atom  36C    basis set group =>   1
Atom  37C    basis set group =>   1
Atom  38C    basis set group =>   1
Atom  39C    basis set group =>   1
Atom  40C    basis set group =>   1
Atom  41C    basis set group =>   1
Atom  42C    basis set group =>   1
Atom  43H    basis set group =>   3
Atom  44H    basis set group =>   3
Atom  45C    basis set group =>   1
Atom  46H    basis set group =>   3
Atom  47H    basis set group =>   3
Atom  48H    basis set group =>   3
Atom  49S    basis set group =>   6
Atom  50O    basis set group =>   7
Atom  51O    basis set group =>   7
Atom  52S    basis set group =>   6
Atom  53O    basis set group =>   7
Atom  54O    basis set group =>   7
Atom  55N    basis set group =>   2
Atom  56C    basis set group =>   1
Atom  57H    basis set group =>   3
Atom  58H    basis set group =>   3
Atom  59C    basis set group =>   1
Atom  60H    basis set group =>   3
Atom  61H    basis set group =>   3
Atom  62C    basis set group =>   1
Atom  63H    basis set group =>   3
Atom  64H    basis set group =>   3
Atom  65C    basis set group =>   1
Atom  66H    basis set group =>   3
Atom  67H    basis set group =>   3
Atom  68Cl   basis set group =>   8
Atom  69O    basis set group =>   7
Atom  70C    basis set group =>   1
Atom  71H    basis set group =>   3
Atom  72H    basis set group =>   3
Atom  73H    basis set group =>   3
Atom  74C    basis set group =>   1
Atom  75H    basis set group =>   3
Atom  76H    basis set group =>   3
Atom  77H    basis set group =>   3
Atom  78C    basis set group =>   1
Atom  79C    basis set group =>   1
Atom  80C    basis set group =>   1
Atom  81C    basis set group =>   1
Atom  82C    basis set group =>   1
Atom  83C    basis set group =>   1
Atom  84C    basis set group =>   1
Atom  85C    basis set group =>   1
Atom  86C    basis set group =>   1
Atom  87F    basis set group =>   4
Atom  88F    basis set group =>   4
Atom  89F    basis set group =>   4
Atom  90H    basis set group =>   3
Atom  91H    basis set group =>   3
Atom  92H    basis set group =>   3
Atom  93H    basis set group =>   3
Atom  94C    basis set group =>   1
Atom  95C    basis set group =>   1
Atom  96C    basis set group =>   1
Atom  97C    basis set group =>   1
Atom  98C    basis set group =>   1
Atom  99C    basis set group =>   1
Atom 100C    basis set group =>   1
Atom 101C    basis set group =>   1
Atom 102C    basis set group =>   1
Atom 103F    basis set group =>   4
Atom 104F    basis set group =>   4
Atom 105F    basis set group =>   4
Atom 106H    basis set group =>   3
Atom 107H    basis set group =>   3
Atom 108H    basis set group =>   3
Atom 109H    basis set group =>   3
-------------------------
ECP PARAMETER INFORMATION
-------------------------

 Group 1, Type I  ECP Def2-ECP (replacing 28 core electrons, lmax=3)

Atom  17I    ECP group =>   1



           ************************************************************
           *        Program running with 8 parallel MPI-processes     *
           *              working on a common directory               *
           ************************************************************
------------------------------------------------------------------------------
                           ORCA GTO INTEGRAL CALCULATION
------------------------------------------------------------------------------
------------------------------------------------------------------------------
                   ___                                                        
                  /   \      - P O W E R E D   B Y -                         
                 /     \                                                     
                 |  |  |   _    _      __       _____    __    __             
                 |  |  |  | |  | |    /  \     |  _  \  |  |  /  |          
                  \  \/   | |  | |   /    \    | | | |  |  | /  /          
                 / \  \   | |__| |  /  /\  \   | |_| |  |  |/  /          
                |  |  |   |  __  | /  /__\  \  |    /   |      \           
                |  |  |   | |  | | |   __   |  |    \   |  |\   \          
                \     /   | |  | | |  |  |  |  | |\  \  |  | \   \       
                 \___/    |_|  |_| |__|  |__|  |_| \__\ |__|  \__/        
                                                                              
                      - O R C A' S   B I G   F R I E N D -                    
                                      &                                       
                       - I N T E G R A L  F E E D E R -                       
                                                                              
 v1 FN, 2020, v2 2021                                                         
------------------------------------------------------------------------------


Reading SHARK input file SaxR_2m_3d_HF_def2-svp.SHARKINP.tmp ... ok
----------------------
SHARK INTEGRAL PACKAGE
----------------------

Number of atoms                             ...    110
Number of basis functions                   ...   1240
Number of shells                            ...    562
Maximum angular momentum                    ...      2
Integral batch strategy                     ... SHARK/LIBINT Hybrid
RI-J (if used) integral strategy            ... SPLIT-RIJ (Revised 2003 algorithm where possible)
Printlevel                                  ...      1
Contraction scheme used                     ... SEGMENTED contraction
Coulomb Range Separation                    ... NOT USED
Exchange Range Separation                   ... NOT USED
Finite Nucleus Model                        ... NOT USED
Auxiliary Coulomb fitting basis             ... NOT available
Auxiliary J/K fitting basis                 ... NOT available
Auxiliary Correlation fitting basis         ... NOT available
Auxiliary 'external' fitting basis          ... NOT available
Integral threshold                          ...     1.000000e-10
Primitive cut-off                           ...     1.000000e-11
Primitive pair pre-selection threshold      ...     1.000000e-11

Calculating pre-screening integrals         ... done (  0.1 sec) Dimension = 562
Organizing shell pair data                  ... done (  6.6 sec)
Shell pair information
Total number of shell pairs                 ...    158203
Shell pairs after pre-screening             ...     61973
Total number of primitive shell pairs       ...    603372
Primitive shell pairs kept                  ...    130686
          la=0 lb=0:  17798 shell pairs
          la=1 lb=0:  23481 shell pairs
          la=1 lb=1:   7893 shell pairs
          la=2 lb=0:   7246 shell pairs
          la=2 lb=1:   4895 shell pairs
          la=2 lb=2:    660 shell pairs

Calculating one electron integrals          ... done (  0.2 sec)
Calculating ECP integrals                   ... done (  0.7 sec)
Calculating Nuclear repulsion               ... done (  0.0 sec) ENN=  14640.504111426475 Eh

SHARK setup successfully completed in   8.0 seconds

Maximum memory used throughout the entire GTOINT-calculation: 97.7 MB


           ************************************************************
           *        Program running with 8 parallel MPI-processes     *
           *              working on a common directory               *
           ************************************************************
-------------------------------------------------------------------------------
                                 ORCA SCF
-------------------------------------------------------------------------------

------------
SCF SETTINGS
------------
Hamiltonian:
 Ab initio Hamiltonian  Method          .... Hartree-Fock(GTOs)


General Settings:
 Integral files         IntName         .... SaxR_2m_3d_HF_def2-svp
 Hartree-Fock type      HFTyp           .... RHF
 Total Charge           Charge          ....    0
 Multiplicity           Mult            ....    1
 Number of Electrons    NEL             ....  564
 Basis Dimension        Dim             .... 1240
 Nuclear Repulsion      ENuc            ....  14640.5041114265 Eh

Convergence Acceleration:
 DIIS                   CNVDIIS         .... on
   Start iteration      DIISMaxIt       ....    12
   Startup error        DIISStart       ....  0.200000
   # of expansion vecs  DIISMaxEq       ....     5
   Bias factor          DIISBfac        ....   1.050
   Max. coefficient     DIISMaxC        ....  10.000
 Trust-Rad. Augm. Hess. CNVTRAH         .... auto
   Auto Start mean grad. ratio tolernc. ....  1.125000
   Auto Start start iteration           ....    20
   Auto Start num. interpolation iter.  ....    10
   Max. Number of Micro iterations      ....    16
   Max. Number of Macro iterations      .... Maxiter - #DIIS iter
   Number of Davidson start vectors     ....     2
   Converg. threshold I  (grad. norm)   ....   5.000e-05
   Converg. threshold II (energy diff.) ....   1.000e-06
   Grad. Scal. Fac. for Micro threshold ....   0.100
   Minimum threshold for Micro iter.    ....   0.010
   NR start threshold (gradient norm)   ....   0.001
   Initial trust radius                 ....   0.400
   Minimum AH scaling param. (alpha)    ....   1.000
   Maximum AH scaling param. (alpha)    .... 1000.000
   Orbital update algorithm             .... Taylor
   White noise on init. David. guess    .... on
   Maximum white noise                  ....   0.010
   Quad. conv. algorithm                .... NR
 SOSCF                  CNVSOSCF        .... on
   Start iteration      SOSCFMaxIt      ....   150
   Startup grad/error   SOSCFStart      ....  0.003300
 Level Shifting         CNVShift        .... on
   Level shift para.    LevelShift      ....    0.2500
   Turn off err/grad.   ShiftErr        ....    0.0010
 Zerner damping         CNVZerner       .... off
 Static damping         CNVDamp         .... on
   Fraction old density DampFac         ....    0.7000
   Max. Damping (<1)    DampMax         ....    0.9800
   Min. Damping (>=0)   DampMin         ....    0.0000
   Turn off err/grad.   DampErr         ....    0.1000
 Fernandez-Rico         CNVRico         .... off

SCF Procedure:
 Maximum # iterations   MaxIter         ....   125
 SCF integral mode      SCFMode         .... Direct
   Integral package                     .... SHARK and LIBINT hybrid scheme
 Reset frequency        DirectResetFreq ....    20
 Integral Threshold     Thresh          ....  1.000e-10 Eh
 Primitive CutOff       TCut            ....  1.000e-11 Eh

Convergence Tolerance:
 Convergence Check Mode ConvCheckMode   .... Total+1el-Energy
 Convergence forced     ConvForced      .... 0
 Energy Change          TolE            ....  1.000e-06 Eh
 1-El. energy change                    ....  1.000e-03 Eh
 Orbital Gradient       TolG            ....  5.000e-05
 Orbital Rotation angle TolX            ....  5.000e-05
 DIIS Error             TolErr          ....  1.000e-06


Diagonalization of the overlap matrix:
Smallest eigenvalue                        ... 1.937e-04
Time for diagonalization                   ...    0.220 sec
Threshold for overlap eigenvalues          ... 1.000e-08
Number of eigenvalues below threshold      ... 0
Time for construction of square roots      ...    0.263 sec
Total time needed                          ...    0.490 sec

Time for model grid setup =    1.673 sec

------------------------------
INITIAL GUESS: MODEL POTENTIAL
------------------------------
Loading Hartree-Fock densities                     ... done
  calling /home/_opt/orca/5.0.3/orca SaxR_2m_3d_HF_def2-svp_atom53.inp > SaxR_2m_3d_HF_def2-svp_atom53.out in order to generate an atomic fitting density for atom 17 (I  with ECP) on-the-fly... 
    atom 17 (I ), assumed electronic state with S=2: 1s2 2s2 2p6 3s2 3p6 4s2 3d10 4p6 5s2 4d10 5p5           ... done
Calculating cut-offs                               ... done
Initializing the effective Hamiltonian             ... done
Setting up the integral package (SHARK)            ... done
Starting the Coulomb interaction                   ... done (   1.8 sec)
Reading the grid                                   ... done
Mapping shells                                     ... done
Starting the XC term evaluation                    ... done (   0.3 sec)
Transforming the Hamiltonian                       ... done (   0.1 sec)
Diagonalizing the Hamiltonian                      ... done (   0.2 sec)
Back transforming the eigenvectors                 ... done (   0.1 sec)
Now organizing SCF variables                       ... done
                      ------------------
                      INITIAL GUESS DONE (   4.6 sec)
                      ------------------
--------------
SCF ITERATIONS
--------------
ITER       Energy         Delta-E        Max-DP      RMS-DP      [F,P]     Damp
               ***  Starting incremental Fock matrix formation  ***
  0  -4883.0464336938   0.000000000000 0.13653364  0.00131731  0.3868235 0.7000
  1  -4883.7972128582  -0.750779164468 0.11829186  0.00101177  0.2684241 0.7000
                               ***Turning on DIIS***
  2  -4884.2547529305  -0.457540072297 0.08984942  0.00071093  0.1852164 0.7000
  3  -4889.4410549215  -5.186301990914 0.07024538  0.00051481  0.1280176 0.7000
  4  -4889.7982136128  -0.357158691397 0.17973264  0.00127627  0.0894468 0.0000
  5  -4885.5669913279   4.231222284947 0.01373509  0.00010598  0.0055259 0.0000
                      *** Initiating the SOSCF procedure ***
                           *** Shutting down DIIS ***
                      *** Re-Reading the Fockian *** 
                      *** Removing any level shift *** 
ITER      Energy       Delta-E        Grad      Rot      Max-DP    RMS-DP
  6  -4885.30215867   0.2648326568  0.001933  0.001933  0.005495  0.000047
               *** Restarting incremental Fock matrix formation ***
  7  -4885.24563693   0.0565217405  0.001435  0.004396  0.002788  0.000029
  8  -4885.24585072  -0.0002137865  0.000520  0.004573  0.002627  0.000034
  9  -4885.24593805  -0.0000873321  0.000286  0.000687  0.000672  0.000009
 10  -4885.24595144  -0.0000133875  0.000098  0.000426  0.000348  0.000004
 11  -4885.24595350  -0.0000020663  0.000047  0.000448  0.000233  0.000002
                 **** Energy Check signals convergence ****
              ***Rediagonalizing the Fockian in SOSCF/NRSCF***

               *****************************************************
               *                     SUCCESS                       *
               *           SCF CONVERGED AFTER  12 CYCLES          *
               *****************************************************


----------------
TOTAL SCF ENERGY
----------------

Total Energy       :        -4885.24595409 Eh         -132934.30066 eV

Components:
Nuclear Repulsion  :        14640.50411143 Eh          398388.37055 eV
Electronic Energy  :       -19525.75006552 Eh         -531322.67121 eV
One Electron Energy:       -36024.24125863 Eh         -980269.44058 eV
Two Electron Energy:        16498.49119311 Eh          448946.76938 eV

Virial components:
Potential Energy   :        -9573.64349558 Eh         -260512.08369 eV
Kinetic Energy     :         4688.39754149 Eh          127577.78303 eV
Virial Ratio       :            2.04198629


---------------
SCF CONVERGENCE
---------------

  Last Energy change         ...   -5.9089e-07  Tolerance :   1.0000e-06
  Last MAX-Density change    ...    1.2354e-04  Tolerance :   1.0000e-05
  Last RMS-Density change    ...    8.0076e-07  Tolerance :   1.0000e-06
  Last Orbital Gradient      ...    2.0037e-05  Tolerance :   5.0000e-05
  Last Orbital Rotation      ...    1.1865e-04  Tolerance :   5.0000e-05

             **** THE GBW FILE WAS UPDATED (SaxR_2m_3d_HF_def2-svp.gbw) ****
             **** DENSITY SaxR_2m_3d_HF_def2-svp.scfp WAS UPDATED ****
             **** ENERGY FILE WAS UPDATED (SaxR_2m_3d_HF_def2-svp.en.tmp) ****
             **** THE GBW FILE WAS UPDATED (SaxR_2m_3d_HF_def2-svp.gbw) ****
             **** DENSITY SaxR_2m_3d_HF_def2-svp.scfp WAS UPDATED ****
----------------
ORBITAL ENERGIES
----------------

  NO   OCC          E(Eh)            E(eV) 
   0   2.0000    -104.806772     -2851.9372 
   1   2.0000     -92.174040     -2508.1832 
   2   2.0000     -92.170092     -2508.0757 
   3   2.0000     -26.323713      -716.3047 
   4   2.0000     -26.322300      -716.2662 
   5   2.0000     -26.319175      -716.1812 
   6   2.0000     -26.318311      -716.1576 
   7   2.0000     -26.316587      -716.1107 
   8   2.0000     -26.312436      -715.9978 
   9   2.0000     -26.312093      -715.9884 
  10   2.0000     -20.600359      -560.5643 
  11   2.0000     -20.529062      -558.6242 
  12   2.0000     -20.513244      -558.1937 
  13   2.0000     -20.508357      -558.0608 
  14   2.0000     -20.507446      -558.0360 
  15   2.0000     -15.610461      -424.7822 
  16   2.0000     -15.576741      -423.8647 
  17   2.0000     -15.563013      -423.4911 
  18   2.0000     -11.516334      -313.3754 
  19   2.0000     -11.508242      -313.1552 
  20   2.0000     -11.376194      -309.5620 
  21   2.0000     -11.359940      -309.1197 
  22   2.0000     -11.356976      -309.0390 
  23   2.0000     -11.355493      -308.9987 
  24   2.0000     -11.343795      -308.6804 
  25   2.0000     -11.307536      -307.6937 
  26   2.0000     -11.305393      -307.6354 
  27   2.0000     -11.289371      -307.1994 
  28   2.0000     -11.288428      -307.1737 
  29   2.0000     -11.286554      -307.1228 
  30   2.0000     -11.285651      -307.0982 
  31   2.0000     -11.280742      -306.9646 
  32   2.0000     -11.280128      -306.9479 
  33   2.0000     -11.278869      -306.9136 
  34   2.0000     -11.278768      -306.9109 
  35   2.0000     -11.278334      -306.8991 
  36   2.0000     -11.277764      -306.8836 
  37   2.0000     -11.277233      -306.8691 
  38   2.0000     -11.274598      -306.7974 
  39   2.0000     -11.271589      -306.7155 
  40   2.0000     -11.271482      -306.7126 
  41   2.0000     -11.267146      -306.5946 
  42   2.0000     -11.262885      -306.4787 
  43   2.0000     -11.261845      -306.4504 
  44   2.0000     -11.261498      -306.4410 
  45   2.0000     -11.261244      -306.4340 
  46   2.0000     -11.261076      -306.4295 
  47   2.0000     -11.260977      -306.4268 
  48   2.0000     -11.257924      -306.3437 
  49   2.0000     -11.257387      -306.3291 
  50   2.0000     -11.256078      -306.2934 
  51   2.0000     -11.255039      -306.2652 
  52   2.0000     -11.254955      -306.2629 
  53   2.0000     -11.253040      -306.2108 
  54   2.0000     -11.252660      -306.2005 
  55   2.0000     -11.251195      -306.1606 
  56   2.0000     -11.248971      -306.1001 
  57   2.0000     -11.248674      -306.0920 
  58   2.0000     -11.248274      -306.0811 
  59   2.0000     -11.247551      -306.0614 
  60   2.0000     -11.247017      -306.0469 
  61   2.0000     -11.246787      -306.0406 
  62   2.0000     -11.245690      -306.0108 
  63   2.0000     -11.245292      -306.0000 
  64   2.0000     -11.243726      -305.9573 
  65   2.0000     -11.243683      -305.9562 
  66   2.0000     -11.243222      -305.9436 
  67   2.0000     -11.242375      -305.9206 
  68   2.0000     -11.241915      -305.9081 
  69   2.0000     -11.238304      -305.8098 
  70   2.0000     -11.231795      -305.6327 
  71   2.0000     -11.230297      -305.5919 
  72   2.0000     -11.225744      -305.4680 
  73   2.0000     -10.570113      -287.6274 
  74   2.0000      -9.173889      -249.6342 
  75   2.0000      -9.169490      -249.5145 
  76   2.0000      -8.044996      -218.9155 
  77   2.0000      -8.041177      -218.8115 
  78   2.0000      -8.040995      -218.8066 
  79   2.0000      -7.735729      -210.4999 
  80   2.0000      -6.865333      -186.8152 
  81   2.0000      -6.864998      -186.8061 
  82   2.0000      -6.864065      -186.7807 
  83   2.0000      -6.860821      -186.6924 
  84   2.0000      -6.860687      -186.6888 
  85   2.0000      -6.859694      -186.6618 
  86   2.0000      -5.593769      -152.2142 
  87   2.0000      -5.579472      -151.8251 
  88   2.0000      -5.578758      -151.8057 
  89   2.0000      -2.289666       -62.3050 
  90   2.0000      -2.283421       -62.1350 
  91   2.0000      -2.282819       -62.1187 
  92   2.0000      -2.267952       -61.7141 
  93   2.0000      -2.267929       -61.7135 
  94   2.0000      -1.689099       -45.9627 
  95   2.0000      -1.681514       -45.7563 
  96   2.0000      -1.619993       -44.0822 
  97   2.0000      -1.592352       -43.3301 
  98   2.0000      -1.590059       -43.2677 
  99   2.0000      -1.584466       -43.1155 
 100   2.0000      -1.583075       -43.0777 
 101   2.0000      -1.460548       -39.7435 
 102   2.0000      -1.437194       -39.1080 
 103   2.0000      -1.413793       -38.4713 
 104   2.0000      -1.316140       -35.8140 
 105   2.0000      -1.313162       -35.7330 
 106   2.0000      -1.303858       -35.4798 
 107   2.0000      -1.250952       -34.0401 
 108   2.0000      -1.213219       -33.0134 
 109   2.0000      -1.193625       -32.4802 
 110   2.0000      -1.184092       -32.2208 
 111   2.0000      -1.180512       -32.1234 
 112   2.0000      -1.176458       -32.0131 
 113   2.0000      -1.170056       -31.8389 
 114   2.0000      -1.169815       -31.8323 
 115   2.0000      -1.128614       -30.7111 
 116   2.0000      -1.124255       -30.5925 
 117   2.0000      -1.104787       -30.0628 
 118   2.0000      -1.096244       -29.8303 
 119   2.0000      -1.071543       -29.1582 
 120   2.0000      -1.069809       -29.1110 
 121   2.0000      -1.062486       -28.9117 
 122   2.0000      -1.055425       -28.7196 
 123   2.0000      -1.051780       -28.6204 
 124   2.0000      -1.047380       -28.5007 
 125   2.0000      -1.043231       -28.3878 
 126   2.0000      -1.033173       -28.1141 
 127   2.0000      -1.028777       -27.9944 
 128   2.0000      -1.028316       -27.9819 
 129   2.0000      -1.019953       -27.7543 
 130   2.0000      -1.010778       -27.5047 
 131   2.0000      -1.005516       -27.3615 
 132   2.0000      -1.004902       -27.3448 
 133   2.0000      -0.977804       -26.6074 
 134   2.0000      -0.971285       -26.4300 
 135   2.0000      -0.967167       -26.3179 
 136   2.0000      -0.955836       -26.0096 
 137   2.0000      -0.950163       -25.8553 
 138   2.0000      -0.942209       -25.6388 
 139   2.0000      -0.922662       -25.1069 
 140   2.0000      -0.921449       -25.0739 
 141   2.0000      -0.906160       -24.6579 
 142   2.0000      -0.881381       -23.9836 
 143   2.0000      -0.875268       -23.8173 
 144   2.0000      -0.871761       -23.7218 
 145   2.0000      -0.862160       -23.4606 
 146   2.0000      -0.856897       -23.3174 
 147   2.0000      -0.854580       -23.2543 
 148   2.0000      -0.853217       -23.2172 
 149   2.0000      -0.847562       -23.0633 
 150   2.0000      -0.844073       -22.9684 
 151   2.0000      -0.841782       -22.9061 
 152   2.0000      -0.838074       -22.8052 
 153   2.0000      -0.828835       -22.5537 
 154   2.0000      -0.811846       -22.0915 
 155   2.0000      -0.806482       -21.9455 
 156   2.0000      -0.802156       -21.8278 
 157   2.0000      -0.798776       -21.7358 
 158   2.0000      -0.796828       -21.6828 
 159   2.0000      -0.796173       -21.6650 
 160   2.0000      -0.794246       -21.6125 
 161   2.0000      -0.790779       -21.5182 
 162   2.0000      -0.789449       -21.4820 
 163   2.0000      -0.782015       -21.2797 
 164   2.0000      -0.757157       -20.6033 
 165   2.0000      -0.754668       -20.5356 
 166   2.0000      -0.749585       -20.3972 
 167   2.0000      -0.745586       -20.2884 
 168   2.0000      -0.735316       -20.0090 
 169   2.0000      -0.729662       -19.8551 
 170   2.0000      -0.723259       -19.6809 
 171   2.0000      -0.720341       -19.6015 
 172   2.0000      -0.716846       -19.5064 
 173   2.0000      -0.710221       -19.3261 
 174   2.0000      -0.707592       -19.2545 
 175   2.0000      -0.703339       -19.1388 
 176   2.0000      -0.699953       -19.0467 
 177   2.0000      -0.698441       -19.0056 
 178   2.0000      -0.697938       -18.9918 
 179   2.0000      -0.695181       -18.9168 
 180   2.0000      -0.692138       -18.8340 
 181   2.0000      -0.690581       -18.7917 
 182   2.0000      -0.690171       -18.7805 
 183   2.0000      -0.687909       -18.7190 
 184   2.0000      -0.678254       -18.4562 
 185   2.0000      -0.676059       -18.3965 
 186   2.0000      -0.673593       -18.3294 
 187   2.0000      -0.663367       -18.0511 
 188   2.0000      -0.660327       -17.9684 
 189   2.0000      -0.659721       -17.9519 
 190   2.0000      -0.655578       -17.8392 
 191   2.0000      -0.652192       -17.7471 
 192   2.0000      -0.651409       -17.7257 
 193   2.0000      -0.650288       -17.6952 
 194   2.0000      -0.649628       -17.6773 
 195   2.0000      -0.645901       -17.5758 
 196   2.0000      -0.642914       -17.4946 
 197   2.0000      -0.642567       -17.4851 
 198   2.0000      -0.641560       -17.4577 
 199   2.0000      -0.637184       -17.3387 
 200   2.0000      -0.636916       -17.3314 
 201   2.0000      -0.632350       -17.2071 
 202   2.0000      -0.629375       -17.1262 
 203   2.0000      -0.627035       -17.0625 
 204   2.0000      -0.625468       -17.0198 
 205   2.0000      -0.620503       -16.8847 
 206   2.0000      -0.619336       -16.8530 
 207   2.0000      -0.615184       -16.7400 
 208   2.0000      -0.610567       -16.6144 
 209   2.0000      -0.610291       -16.6069 
 210   2.0000      -0.605804       -16.4848 
 211   2.0000      -0.604099       -16.4384 
 212   2.0000      -0.602457       -16.3937 
 213   2.0000      -0.601328       -16.3630 
 214   2.0000      -0.600862       -16.3503 
 215   2.0000      -0.599667       -16.3178 
 216   2.0000      -0.598249       -16.2792 
 217   2.0000      -0.597103       -16.2480 
 218   2.0000      -0.590634       -16.0720 
 219   2.0000      -0.587388       -15.9836 
 220   2.0000      -0.578257       -15.7352 
 221   2.0000      -0.577127       -15.7044 
 222   2.0000      -0.575450       -15.6588 
 223   2.0000      -0.571956       -15.5637 
 224   2.0000      -0.563200       -15.3255 
 225   2.0000      -0.559426       -15.2228 
 226   2.0000      -0.557564       -15.1721 
 227   2.0000      -0.550184       -14.9713 
 228   2.0000      -0.542252       -14.7554 
 229   2.0000      -0.540933       -14.7195 
 230   2.0000      -0.539512       -14.6809 
 231   2.0000      -0.536544       -14.6001 
 232   2.0000      -0.535145       -14.5620 
 233   2.0000      -0.530381       -14.4324 
 234   2.0000      -0.528618       -14.3844 
 235   2.0000      -0.526859       -14.3366 
 236   2.0000      -0.526290       -14.3211 
 237   2.0000      -0.525091       -14.2885 
 238   2.0000      -0.521246       -14.1838 
 239   2.0000      -0.519600       -14.1390 
 240   2.0000      -0.517801       -14.0901 
 241   2.0000      -0.517383       -14.0787 
 242   2.0000      -0.514256       -13.9936 
 243   2.0000      -0.510463       -13.8904 
 244   2.0000      -0.509832       -13.8732 
 245   2.0000      -0.503900       -13.7118 
 246   2.0000      -0.501619       -13.6498 
 247   2.0000      -0.495073       -13.4716 
 248   2.0000      -0.489319       -13.3150 
 249   2.0000      -0.486759       -13.2454 
 250   2.0000      -0.484404       -13.1813 
 251   2.0000      -0.482247       -13.1226 
 252   2.0000      -0.480146       -13.0654 
 253   2.0000      -0.477214       -12.9857 
 254   2.0000      -0.469134       -12.7658 
 255   2.0000      -0.463581       -12.6147 
 256   2.0000      -0.454625       -12.3710 
 257   2.0000      -0.452200       -12.3050 
 258   2.0000      -0.442573       -12.0430 
 259   2.0000      -0.436385       -11.8746 
 260   2.0000      -0.426171       -11.5967 
 261   2.0000      -0.423169       -11.5150 
 262   2.0000      -0.419866       -11.4251 
 263   2.0000      -0.415016       -11.2931 
 264   2.0000      -0.394491       -10.7346 
 265   2.0000      -0.393043       -10.6952 
 266   2.0000      -0.386941       -10.5292 
 267   2.0000      -0.382574       -10.4104 
 268   2.0000      -0.376709       -10.2508 
 269   2.0000      -0.372488       -10.1359 
 270   2.0000      -0.367441        -9.9986 
 271   2.0000      -0.364813        -9.9271 
 272   2.0000      -0.357834        -9.7372 
 273   2.0000      -0.352002        -9.5785 
 274   2.0000      -0.350097        -9.5266 
 275   2.0000      -0.344867        -9.3843 
 276   2.0000      -0.336353        -9.1526 
 277   2.0000      -0.322531        -8.7765 
 278   2.0000      -0.314691        -8.5632 
 279   2.0000      -0.306409        -8.3378 
 280   2.0000      -0.282568        -7.6891 
 281   2.0000      -0.269989        -7.3468 
 282   0.0000       0.021982         0.5982 
 283   0.0000       0.042673         1.1612 
 284   0.0000       0.051992         1.4148 
 285   0.0000       0.063508         1.7281 
 286   0.0000       0.070520         1.9190 
 287   0.0000       0.074448         2.0258 
 288   0.0000       0.099122         2.6973 
 289   0.0000       0.109191         2.9712 
 290   0.0000       0.113665         3.0930 
 291   0.0000       0.115314         3.1378 
 292   0.0000       0.124318         3.3829 
 293   0.0000       0.127006         3.4560 
 294   0.0000       0.138685         3.7738 
 295   0.0000       0.146575         3.9885 
 296   0.0000       0.154526         4.2049 
 297   0.0000       0.160927         4.3791 
 298   0.0000       0.169852         4.6219 
 299   0.0000       0.173331         4.7166 
 300   0.0000       0.190340         5.1794 
 301   0.0000       0.191531         5.2118 
 302   0.0000       0.191882         5.2214 
 303   0.0000       0.192759         5.2452 
 304   0.0000       0.193956         5.2778 
 305   0.0000       0.194828         5.3015 
 306   0.0000       0.202746         5.5170 
 307   0.0000       0.209913         5.7120 
 308   0.0000       0.213895         5.8204 
 309   0.0000       0.215468         5.8632 
 310   0.0000       0.216340         5.8869 
 311   0.0000       0.218839         5.9549 
 312   0.0000       0.222585         6.0568 
 313   0.0000       0.224391         6.1060 
 314   0.0000       0.224639         6.1127 
 315   0.0000       0.229632         6.2486 
 316   0.0000       0.234423         6.3790 
 317   0.0000       0.235337         6.4039 
 318   0.0000       0.238048         6.4776 
 319   0.0000       0.241638         6.5753 
 320   0.0000       0.242964         6.6114 
 321   0.0000       0.245507         6.6806 
 322   0.0000       0.247100         6.7239 
 323   0.0000       0.248082         6.7507 
 324   0.0000       0.255536         6.9535 
 325   0.0000       0.259590         7.0638 
 326   0.0000       0.261294         7.1102 
 327   0.0000       0.264666         7.2019 
 328   0.0000       0.265543         7.2258 
 329   0.0000       0.267440         7.2774 
 330   0.0000       0.267882         7.2894 
 331   0.0000       0.270236         7.3535 
 332   0.0000       0.275659         7.5011 
 333   0.0000       0.279217         7.5979 
 334   0.0000       0.282713         7.6930 
 335   0.0000       0.285571         7.7708 
 336   0.0000       0.286647         7.8000 
 337   0.0000       0.289835         7.8868 
 338   0.0000       0.293474         7.9858 
 339   0.0000       0.294674         8.0185 
 340   0.0000       0.297653         8.0996 
 341   0.0000       0.299101         8.1390 
 342   0.0000       0.303401         8.2559 
 343   0.0000       0.306219         8.3326 
 344   0.0000       0.311984         8.4895 
 345   0.0000       0.315077         8.5737 
 346   0.0000       0.315919         8.5966 
 347   0.0000       0.322290         8.7700 
 348   0.0000       0.322488         8.7753 
 349   0.0000       0.329611         8.9692 
 350   0.0000       0.332563         9.0495 
 351   0.0000       0.337623         9.1872 
 352   0.0000       0.340538         9.2665 
 353   0.0000       0.343047         9.3348 
 354   0.0000       0.345785         9.4093 
 355   0.0000       0.348922         9.4946 
 356   0.0000       0.354433         9.6446 
 357   0.0000       0.356877         9.7111 
 358   0.0000       0.360255         9.8030 
 359   0.0000       0.362624         9.8675 
 360   0.0000       0.371607        10.1119 
 361   0.0000       0.375925        10.2294 
 362   0.0000       0.388901        10.5825 
 363   0.0000       0.392115        10.6700 
 364   0.0000       0.394904        10.7459 
 365   0.0000       0.398955        10.8561 
 366   0.0000       0.399112        10.8604 
 367   0.0000       0.404497        11.0069 
 368   0.0000       0.411270        11.1912 
 369   0.0000       0.412801        11.2329 
 370   0.0000       0.415046        11.2940 
 371   0.0000       0.421151        11.4601 
 372   0.0000       0.423084        11.5127 
 373   0.0000       0.425516        11.5789 
 374   0.0000       0.429938        11.6992 
 375   0.0000       0.430571        11.7164 
 376   0.0000       0.432596        11.7715 
 377   0.0000       0.437767        11.9123 
 378   0.0000       0.441667        12.0184 
 379   0.0000       0.442693        12.0463 
 380   0.0000       0.445564        12.1244 
 381   0.0000       0.446588        12.1523 
 382   0.0000       0.447941        12.1891 
 383   0.0000       0.450649        12.2628 
 384   0.0000       0.453155        12.3310 
 385   0.0000       0.455601        12.3975 
 386   0.0000       0.456409        12.4195 
 387   0.0000       0.459042        12.4912 
 388   0.0000       0.462117        12.5748 
 389   0.0000       0.463110        12.6019 
 390   0.0000       0.464483        12.6392 
 391   0.0000       0.467276        12.7152 
 392   0.0000       0.470936        12.8148 
 393   0.0000       0.474368        12.9082 
[...]
  831. RY ( 3) S 53             0.04597     1.12797
  832. RY ( 4) S 53             0.03411     1.05614
  833. RY ( 5) S 53             0.01127     1.14187
  834. RY ( 6) S 53             0.00950     1.20786
  835. RY ( 7) S 53             0.00675     0.89022
  836. RY ( 8) S 53             0.00242     1.22125
  837. RY ( 9) S 53             0.00123     1.30861
  838. RY ( 1) O 54             0.00196     1.66145
  839. RY ( 2) O 54             0.00098     1.53940
  840. RY ( 3) O 54             0.00057     1.69561
  841. RY ( 4) O 54             0.00016     1.40868
  842. RY ( 5) O 54             0.00005     3.13064
  843. RY ( 6) O 54             0.00002     3.10638
  844. RY ( 7) O 54             0.00001     3.08551
  845. RY ( 8) O 54             0.00001     3.23474
  846. RY ( 9) O 54             0.00000     3.56892
  847. RY ( 1) O 55             0.00166     1.64176
  848. RY ( 2) O 55             0.00086     1.62133
  849. RY ( 3) O 55             0.00076     1.65112
  850. RY ( 4) O 55             0.00022     1.45452
  851. RY ( 5) O 55             0.00005     3.19057
  852. RY ( 6) O 55             0.00002     3.10379
  853. RY ( 7) O 55             0.00002     3.12175
  854. RY ( 8) O 55             0.00001     3.14903
  855. RY ( 9) O 55             0.00000     3.59009
  856. RY ( 1) N 56             0.00526     1.49783
  857. RY ( 2) N 56             0.00296     1.35256
  858. RY ( 3) N 56             0.00171     1.63487
  859. RY ( 4) N 56             0.00085     1.37196
  860. RY ( 5) N 56             0.00033     2.79781
  861. RY ( 6) N 56             0.00026     2.69779
  862. RY ( 7) N 56             0.00020     3.01168
  863. RY ( 8) N 56             0.00014     2.67558
  864. RY ( 9) N 56             0.00006     2.74676
  993. RY ( 1) C 79             0.00778     1.06354
  994. RY ( 2) C 79             0.00323     0.88858
  995. RY ( 3) C 79             0.00216     1.36878
  996. RY ( 4) C 79             0.00058     1.31935
  997. RY ( 5) C 79             0.00039     1.96780
  998. RY ( 6) C 79             0.00010     2.79931
  999. RY ( 7) C 79             0.00003     2.73520
 1000. RY ( 8) C 79             0.00002     2.08998
 1001. RY ( 9) C 79             0.00001     2.42210
 1002. RY ( 1) C 80             0.00732     1.06182
 1003. RY ( 2) C 80             0.00317     0.87089
 1004. RY ( 3) C 80             0.00228     1.21566
 1005. RY ( 4) C 80             0.00045     1.27411
 1006. RY ( 5) C 80             0.00034     2.14226
 1007. RY ( 6) C 80             0.00006     2.61938
 1008. RY ( 7) C 80             0.00003     3.09795
 1009. RY ( 8) C 80             0.00002     2.07847
 1010. RY ( 9) C 80             0.00001     2.21616
 1011. RY ( 1) C 81             0.00753     1.44680
 1012. RY ( 2) C 81             0.00243     1.42753
 1013. RY ( 3) C 81             0.00223     1.14039
 1014. RY ( 4) C 81             0.00094     2.11702
 1015. RY ( 5) C 81             0.00081     1.07802
 1016. RY ( 6) C 81             0.00042     2.09327
 1017. RY ( 7) C 81             0.00040     2.22385
 1018. RY ( 8) C 81             0.00008     2.69834
 1019. RY ( 9) C 81             0.00001     2.51282
 1020. RY ( 1) C 82             0.00682     1.42450
 1021. RY ( 2) C 82             0.00337     0.94967
 1022. RY ( 3) C 82             0.00184     0.91119
 1023. RY ( 4) C 82             0.00081     1.44937
 1024. RY ( 5) C 82             0.00070     1.53569
 1025. RY ( 6) C 82             0.00013     2.72202
 1026. RY ( 7) C 82             0.00004     2.48454
 1027. RY ( 8) C 82             0.00002     2.47816
 1028. RY ( 9) C 82             0.00001     2.52890
 1029. RY ( 1) C 83             0.00630     1.37272
 1030. RY ( 2) C 83             0.00298     0.86427
 1031. RY ( 3) C 83             0.00113     1.68013
 1032. RY ( 4) C 83             0.00077     1.33492
 1033. RY ( 5) C 83             0.00042     0.79365
 1034. RY ( 6) C 83             0.00014     2.73555
 1035. RY ( 7) C 83             0.00002     2.62790
 1036. RY ( 8) C 83             0.00001     2.36308
 1037. RY ( 9) C 83             0.00000     2.33468
 1038. RY ( 1) C 84             0.00623     1.35873
 1039. RY ( 2) C 84             0.00297     0.84344
 1040. RY ( 3) C 84             0.00121     0.83617
 1041. RY ( 4) C 84             0.00083     2.16286
 1042. RY ( 5) C 84             0.00041     0.77952
 1043. RY ( 6) C 84             0.00014     2.71510
 1044. RY ( 7) C 84             0.00001     2.61432
 1045. RY ( 8) C 84             0.00000     2.53358
 1046. RY ( 9) C 84             0.00000     2.15776
 1047. RY ( 1) C 85             0.00713     1.27882
 1048. RY ( 2) C 85             0.00340     0.93513
 1049. RY ( 3) C 85             0.00141     1.46096
 1050. RY ( 4) C 85             0.00084     1.53866
 1051. RY ( 5) C 85             0.00051     0.73312
 1052. RY ( 6) C 85             0.00013     2.69632
 1053. RY ( 7) C 85             0.00003     2.74284
 1054. RY ( 8) C 85             0.00001     2.50887
 1055. RY ( 9) C 85             0.00000     2.16034
 1056. RY ( 1) C 86             0.00675     1.40249
 1057. RY ( 2) C 86             0.00338     1.14565
 1058. RY ( 3) C 86             0.00278     0.89036
 1059. RY ( 4) C 86             0.00153     0.72152
 1060. RY ( 5) C 86             0.00100     2.17001
 1061. RY ( 6) C 86             0.00025     2.68987
 1062. RY ( 7) C 86             0.00019     2.17181
 1063. RY ( 8) C 86             0.00013     2.56804
 1064. RY ( 9) C 86             0.00003     2.49126
 1065. RY ( 1) C 87             0.01705     0.99067
 1066. RY ( 2) C 87             0.01567     1.06367
 1067. RY ( 3) C 87             0.01245     0.93019
 1068. RY ( 4) C 87             0.00366     2.06455
 1069. RY ( 5) C 87             0.00330     1.59722
 1070. RY ( 6) C 87             0.00301     2.01036
 1071. RY ( 7) C 87             0.00278     2.15393
 1072. RY ( 8) C 87             0.00193     2.30964
 1073. RY ( 9) C 87             0.00055     1.48689
 1074. RY ( 1) F 88             0.00075     1.87611
 1075. RY ( 2) F 88             0.00025     2.08353
 1076. RY ( 3) F 88             0.00017     1.70890
 1077. RY ( 4) F 88             0.00003     2.01786
 1078. RY ( 5) F 88             0.00002     3.49432
 1079. RY ( 6) F 88             0.00001     3.49179
 1080. RY ( 7) F 88             0.00000     3.62006
 1081. RY ( 8) F 88             0.00000     3.43172
 1082. RY ( 9) F 88             0.00000     3.38509
 1083. RY ( 1) F 89             0.00101     1.88804
 1084. RY ( 2) F 89             0.00022     2.09361
 1085. RY ( 3) F 89             0.00017     1.75515
 1086. RY ( 4) F 89             0.00003     2.04747
 1087. RY ( 5) F 89             0.00002     3.50162
 1088. RY ( 6) F 89             0.00001     3.43975
 1089. RY ( 7) F 89             0.00001     3.45508
 1090. RY ( 8) F 89             0.00000     3.52392
 1091. RY ( 9) F 89             0.00000     3.46108
 1092. RY ( 1) F 90             0.00102     1.88644
 1093. RY ( 2) F 90             0.00022     2.08749
 1094. RY ( 3) F 90             0.00017     1.74779
 1095. RY ( 4) F 90             0.00003     2.09451
 1096. RY ( 5) F 90             0.00002     3.47866
 1097. RY ( 6) F 90             0.00001     3.45369
 1098. RY ( 7) F 90             0.00001     3.46467
 1099. RY ( 8) F 90             0.00000     3.48370
 1100. RY ( 9) F 90             0.00000     3.46879
 1101. RY ( 1) H 91             0.00446     0.81108
 1102. RY ( 2) H 91             0.00009     2.81646
 1103. RY ( 3) H 91             0.00008     1.97377
 1104. RY ( 4) H 91             0.00002     2.26343
 1105. RY ( 1) H 92             0.00158     0.49963
 1106. RY ( 2) H 92             0.00008     1.91794
 1107. RY ( 3) H 92             0.00003     2.70817
 1108. RY ( 4) H 92             0.00001     2.22923
 1109. RY ( 1) H 93             0.00112     0.43884
 1110. RY ( 2) H 93             0.00009     1.91605
 1111. RY ( 3) H 93             0.00002     2.66110
 1112. RY ( 4) H 93             0.00001     2.22592
 1113. RY ( 1) H 94             0.00140     0.45600
 1114. RY ( 2) H 94             0.00008     1.91922
 1115. RY ( 3) H 94             0.00006     2.32155
 1116. RY ( 4) H 94             0.00002     2.55542
 1117. RY ( 1) C 95             0.00777     1.06569
 1118. RY ( 2) C 95             0.00312     0.87302
 1119. RY ( 3) C 95             0.00198     1.43339
 1120. RY ( 4) C 95             0.00057     1.30747
 1121. RY ( 5) C 95             0.00030     1.89471
 1122. RY ( 6) C 95             0.00009     2.82438
 1123. RY ( 7) C 95             0.00003     2.83260
 1124. RY ( 8) C 95             0.00002     2.05742
 1125. RY ( 9) C 95             0.00001     2.34575
 1126. RY ( 1) C 96             0.00725     1.07053
 1127. RY ( 2) C 96             0.00318     0.85523
 1128. RY ( 3) C 96             0.00220     1.24032
 1129. RY ( 4) C 96             0.00040     1.26785
 1130. RY ( 5) C 96             0.00034     2.08516
 1131. RY ( 6) C 96             0.00006     2.63337
 1132. RY ( 7) C 96             0.00003     3.08450
 1133. RY ( 8) C 96             0.00002     2.04162
 1134. RY ( 9) C 96             0.00001     2.27777
 1135. RY ( 1) C 97             0.00746     1.43472
 1136. RY ( 2) C 97             0.00244     1.42859
 1137. RY ( 3) C 97             0.00225     1.13480
 1138. RY ( 4) C 97             0.00093     2.13937
 1139. RY ( 5) C 97             0.00086     1.00542
 1140. RY ( 6) C 97             0.00040     2.03328
 1141. RY ( 7) C 97             0.00040     2.32771
 1142. RY ( 8) C 97             0.00008     2.70531
 1143. RY ( 9) C 97             0.00001     2.51507
 1144. RY ( 1) C 98             0.00652     1.35596
 1145. RY ( 2) C 98             0.00329     0.93352
 1146. RY ( 3) C 98             0.00140     0.96779
 1147. RY ( 4) C 98             0.00073     1.87771
 1148. RY ( 5) C 98             0.00065     0.95672
 1149. RY ( 6) C 98             0.00012     2.71507
 1150. RY ( 7) C 98             0.00002     2.74436
 1151. RY ( 8) C 98             0.00001     2.22365
 1152. RY ( 9) C 98             0.00001     2.51010
 1153. RY ( 1) C 99             0.00628     1.37014
 1154. RY ( 2) C 99             0.00293     0.85265
 1155. RY ( 3) C 99             0.00106     1.90725
 1156. RY ( 4) C 99             0.00070     1.11941
 1157. RY ( 5) C 99             0.00042     0.81342
 1158. RY ( 6) C 99             0.00014     2.72586
 1159. RY ( 7) C 99             0.00001     2.59848
 1160. RY ( 8) C 99             0.00000     2.55038
 1161. RY ( 9) C 99             0.00000     2.16059
 1162. RY ( 1) C100             0.00623     1.36547
 1163. RY ( 2) C100             0.00294     0.85282
 1164. RY ( 3) C100             0.00116     0.82955
 1165. RY ( 4) C100             0.00083     2.19082
 1166. RY ( 5) C100             0.00041     0.78336
 1167. RY ( 6) C100             0.00014     2.72763
 1168. RY ( 7) C100             0.00002     2.62163
 1169. RY ( 8) C100             0.00000     2.54198
 1170. RY ( 9) C100             0.00000     2.16525
 1171. RY ( 1) C101             0.00714     1.28554
 1172. RY ( 2) C101             0.00338     0.94542
 1173. RY ( 3) C101             0.00143     1.47474
 1174. RY ( 4) C101             0.00082     1.54297
 1175. RY ( 5) C101             0.00051     0.74209
 1176. RY ( 6) C101             0.00013     2.70248
 1177. RY ( 7) C101             0.00003     2.75128
 1178. RY ( 8) C101             0.00001     2.51806
 1179. RY ( 9) C101             0.00000     2.16857
 1180. RY ( 1) C102             0.00672     1.40855
 1181. RY ( 2) C102             0.00345     1.15195
 1182. RY ( 3) C102             0.00278     0.89528
 1183. RY ( 4) C102             0.00152     0.73196
 1184. RY ( 5) C102             0.00101     2.17553
 1185. RY ( 6) C102             0.00025     2.69545
 1186. RY ( 7) C102             0.00019     2.17895
 1187. RY ( 8) C102             0.00013     2.57235
 1188. RY ( 9) C102             0.00003     2.49938
 1189. RY ( 1) C103             0.01708     1.00153
 1190. RY ( 2) C103             0.01567     1.07391
 1191. RY ( 3) C103             0.01248     0.93914
 1192. RY ( 4) C103             0.00366     2.06550
 1193. RY ( 5) C103             0.00326     1.61261
 1194. RY ( 6) C103             0.00301     2.01202
 1195. RY ( 7) C103             0.00278     2.16517
 1196. RY ( 8) C103             0.00194     2.31606
 1197. RY ( 9) C103             0.00054     1.49176
 1198. RY ( 1) F104             0.00103     1.89569
 1199. RY ( 2) F104             0.00022     2.09700
 1200. RY ( 3) F104             0.00017     1.75079
 1201. RY ( 4) F104             0.00003     2.12220
 1202. RY ( 5) F104             0.00002     3.47793
 1203. RY ( 6) F104             0.00001     3.45610
 1204. RY ( 7) F104             0.00001     3.46630
 1205. RY ( 8) F104             0.00000     3.48485
 1206. RY ( 9) F104             0.00000     3.47278
 1207. RY ( 1) F105             0.00102     1.89541
 1208. RY ( 2) F105             0.00022     2.09433
 1209. RY ( 3) F105             0.00017     1.75395
 1210. RY ( 4) F105             0.00003     2.09182
 1211. RY ( 5) F105             0.00002     3.48616
 1212. RY ( 6) F105             0.00001     3.45395
 1213. RY ( 7) F105             0.00001     3.46738
 1214. RY ( 8) F105             0.00000     3.50965
 1215. RY ( 9) F105             0.00000     3.47072
 1216. RY ( 1) F106             0.00075     1.88270
 1217. RY ( 2) F106             0.00025     2.09327
 1218. RY ( 3) F106             0.00017     1.71670
 1219. RY ( 4) F106             0.00003     2.02160
 1220. RY ( 5) F106             0.00002     3.50100
 1221. RY ( 6) F106             0.00001     3.49890
 1222. RY ( 7) F106             0.00000     3.62453
 1223. RY ( 8) F106             0.00000     3.43569
 1224. RY ( 9) F106             0.00000     3.40070
 1225. RY ( 1) H107             0.00157     0.52407
 1226. RY ( 2) H107             0.00007     2.04200
 1227. RY ( 3) H107             0.00005     2.52531
 1228. RY ( 4) H107             0.00001     2.36747
 1229. RY ( 1) H108             0.00112     0.44888
 1230. RY ( 2) H108             0.00007     1.92481
 1231. RY ( 3) H108             0.00002     2.67130
 1232. RY ( 4) H108             0.00001     2.23084
 1233. RY ( 1) H109             0.00113     0.44805
 1234. RY ( 2) H109             0.00009     1.92465
 1235. RY ( 3) H109             0.00002     2.67082
 1236. RY ( 4) H109             0.00001     2.23204
 1237. RY ( 1) H110             0.00140     0.46534
 1238. RY ( 2) H110             0.00008     1.92663
 1239. RY ( 3) H110             0.00006     2.33121
 1240. RY ( 4) H110             0.00001     2.56273
          -------------------------------
                 Total Lewis  361.38461  ( 97.2092%)
           Valence non-Lewis    9.17479  (  2.4679%)
           Rydberg non-Lewis    1.20016  (  0.3228%)
          -------------------------------
               Total unit  2  371.75956  (100.0000%)
              Charge unit  2   -0.75956

 $CHOOSE
   LONE 6 1 16 3 17 1 18 3 22 1 37 1 51 3 52 3 54 3 55 3 56 2 69 3 70 2 88 3
        89 3 90 3 104 3 105 3 106 3 END
   BOND S 1 2 D 1 6 S 1 8 S 2 3 S 2 18 S 2 19 D 3 4 S 3 69 S 4 5 S 4 7 S 5 6
        S 5 17 S 8 9 D 8 15 D 9 10 S 9 70 S 10 12 S 10 13 D 11 12 S 11 14
        S 11 15 S 12 75 S 15 16 S 17 57 S 17 60 D 20 21 S 20 25 S 20 26 S 21 22
        S 21 27 S 22 23 S 22 28 S 23 24 S 23 29 D 24 25 S 24 30 S 25 31 D 28 33
        S 28 35 D 29 32 S 29 34 S 32 33 S 32 79 S 33 50 D 35 36 S 35 37 S 36 38
        S 36 53 S 37 39 S 37 40 D 38 41 S 38 95 S 39 41 S 39 42 D 40 43 S 40 44
        S 41 45 D 42 46 S 42 47 S 43 46 S 43 48 S 46 49 S 50 51 S 50 52 S 50 56
        S 53 54 S 53 55 S 53 56 S 57 58 S 57 59 S 57 66 S 60 61 S 60 62 S 60 63
        S 63 64 S 63 65 S 63 66 S 66 67 S 66 68 S 70 71 S 71 72 S 71 73 S 71 74
        S 75 76 S 75 77 S 75 78 T 79 80 S 80 81 D 81 82 S 81 86 S 82 83 S 82 91
        D 83 84 S 83 92 S 84 85 S 84 93 D 85 86 S 85 94 S 86 87 S 87 88 S 87 89
        S 87 90 T 95 96 S 96 97 D 97 98 S 97 102 S 98 99 S 98 107 D 99 100
        S 99 108 S 100 101 S 100 109 D 101 102 S 101 110 S 102 103 S 103 104
        S 103 105 S 103 106 END
 $END

 NBO analysis completed in 234.21 CPU seconds (235 wall seconds)
 Maximum scratch memory used by NBO was 12761501 words (97.36 MB)
Stopping NBO...-------
TIMINGS
-------

Total SCF time: 0 days 0 hours 18 min 47 sec 

Total time                  ....    1127.540 sec
Sum of individual times     ....    1118.499 sec  ( 99.2%)

Fock matrix formation       ....     872.656 sec  ( 77.4%)
Diagonalization             ....       2.465 sec  (  0.2%)
Density matrix formation    ....       0.253 sec  (  0.0%)
Population analysis         ....     235.230 sec  ( 20.9%)
Initial guess               ....       2.952 sec  (  0.3%)
Orbital Transformation      ....       0.000 sec  (  0.0%)
Orbital Orthonormalization  ....       0.000 sec  (  0.0%)
DIIS solution               ....       1.404 sec  (  0.1%)
SOSCF solution              ....       1.865 sec  (  0.2%)

Maximum memory used throughout the entire SCF-calculation: 326.1 MB

-------------------------   --------------------
FINAL SINGLE POINT ENERGY     -4885.245954093905
-------------------------   --------------------


                            ***************************************
                            *     ORCA property calculations      *
                            ***************************************

                                    ---------------------
                                    Active property flags
                                    ---------------------
   (+) Dipole Moment


------------------------------------------------------------------------------
                       ORCA ELECTRIC PROPERTIES CALCULATION
------------------------------------------------------------------------------

Dipole Moment Calculation                       ... on
Quadrupole Moment Calculation                   ... off
Polarizability Calculation                      ... off
GBWName                                         ... SaxR_2m_3d_HF_def2-svp.gbw
Electron density                                ... SaxR_2m_3d_HF_def2-svp.scfp
The origin for moment calculation is the CENTER OF MASS  = ( 8.432396, -2.520454 -0.744083)

-------------
DIPOLE MOMENT
-------------
                                X             Y             Z
Electronic contribution:     -9.39864    -156.46508    -237.12577
Nuclear contribution   :     13.20940     154.42078     237.35991
                        -----------------------------------------
Total Dipole Moment    :      3.81076      -2.04430       0.23413
                        -----------------------------------------
Magnitude (a.u.)       :      4.33080
Magnitude (Debye)      :     11.00802



--------------------
Rotational spectrum 
--------------------
 
Rotational constants in cm-1:     0.001118     0.000678     0.000542 
Rotational constants in MHz :    33.520205    20.321210    16.237931 

 Dipole components along the rotational axes: 
x,y,z [a.u.] :     3.116979    -2.947028     0.596077 
x,y,z [Debye]:     7.922731    -7.490750     1.515109 

 

Timings for individual modules:

Sum of individual times         ...     1136.562 sec (=  18.943 min)
GTO integral calculation        ...        8.542 sec (=   0.142 min)   0.8 %
SCF iterations                  ...     1128.019 sec (=  18.800 min)  99.2 %
                             ****ORCA TERMINATED NORMALLY****
TOTAL RUN TIME: 0 days 0 hours 18 minutes 58 seconds 770 msec
